ITEM: TIMESTEP
65000
ITEM: NUMBER OF ATOMS
108
ITEM: BOX BOUNDS pp pp pp
0.0000000000000000e+00 4.8609999999999998e+00
0.0000000000000000e+00 4.8609999999999998e+00
0.0000000000000000e+00 4.8609999999999998e+00
ITEM: ATOMS id element type x y z 
4 Ar 1 0.000185062 0.810352 0.810352 
3 Ar 1 0.810352 0.000185062 0.810352 
1 Ar 1 0.000185062 0.000185062 0.000185062 
2 Ar 1 0.810352 0.810352 0.000185062 
8 Ar 1 1.62052 0.810352 0.810352 
5 Ar 1 1.62052 0.000185062 0.000185062 
7 Ar 1 2.43069 0.000185062 0.810352 
6 Ar 1 2.43069 0.810352 0.000185062 
12 Ar 1 3.24085 0.810352 0.810352 
9 Ar 1 3.24085 0.000185062 0.000185062 
10 Ar 1 4.05102 0.810352 0.000185062 
11 Ar 1 4.05102 0.000185062 0.810352 
15 Ar 1 0.810352 1.62052 0.810352 
13 Ar 1 0.000185062 1.62052 0.000185062 
17 Ar 1 1.62052 1.62052 0.000185062 
19 Ar 1 2.43069 1.62052 0.810352 
21 Ar 1 3.24085 1.62052 0.000185062 
23 Ar 1 4.05102 1.62052 0.810352 
16 Ar 1 0.000185062 2.43069 0.810352 
14 Ar 1 0.810352 2.43069 0.000185062 
20 Ar 1 1.62052 2.43069 0.810352 
18 Ar 1 2.43069 2.43069 0.000185062 
24 Ar 1 3.24085 2.43069 0.810352 
22 Ar 1 4.05102 2.43069 0.000185062 
27 Ar 1 0.810352 3.24085 0.810352 
25 Ar 1 0.000185062 3.24085 0.000185062 
29 Ar 1 1.62052 3.24085 0.000185062 
31 Ar 1 2.43069 3.24085 0.810352 
33 Ar 1 3.24085 3.24085 0.000185062 
35 Ar 1 4.05102 3.24085 0.810352 
28 Ar 1 0.000185062 4.05102 0.810352 
26 Ar 1 0.810352 4.05102 0.000185062 
32 Ar 1 1.62052 4.05102 0.810352 
30 Ar 1 2.43069 4.05102 0.000185062 
36 Ar 1 3.24085 4.05102 0.810352 
34 Ar 1 4.05102 4.05102 0.000185062 
38 Ar 1 0.810352 0.810352 1.62052 
37 Ar 1 0.000185062 0.000185062 1.62052 
41 Ar 1 1.62052 0.000185062 1.62052 
42 Ar 1 2.43069 0.810352 1.62052 
45 Ar 1 3.24085 0.000185062 1.62052 
46 Ar 1 4.05102 0.810352 1.62052 
49 Ar 1 0.000185062 1.62052 1.62052 
53 Ar 1 1.62052 1.62052 1.62052 
57 Ar 1 3.24085 1.62052 1.62052 
50 Ar 1 0.810352 2.43069 1.62052 
54 Ar 1 2.43069 2.43069 1.62052 
58 Ar 1 4.05102 2.43069 1.62052 
61 Ar 1 0.000185062 3.24085 1.62052 
65 Ar 1 1.62052 3.24085 1.62052 
69 Ar 1 3.24085 3.24085 1.62052 
62 Ar 1 0.810352 4.05102 1.62052 
66 Ar 1 2.43069 4.05102 1.62052 
70 Ar 1 4.05102 4.05102 1.62052 
40 Ar 1 0.000185062 0.810352 2.43069 
39 Ar 1 0.810352 0.000185062 2.43069 
44 Ar 1 1.62052 0.810352 2.43069 
43 Ar 1 2.43069 0.000185062 2.43069 
48 Ar 1 3.24085 0.810352 2.43069 
47 Ar 1 4.05102 0.000185062 2.43069 
51 Ar 1 0.810352 1.62052 2.43069 
55 Ar 1 2.43069 1.62052 2.43069 
59 Ar 1 4.05102 1.62052 2.43069 
52 Ar 1 0.000185062 2.43069 2.43069 
56 Ar 1 1.62052 2.43069 2.43069 
60 Ar 1 3.24085 2.43069 2.43069 
63 Ar 1 0.810352 3.24085 2.43069 
67 Ar 1 2.43069 3.24085 2.43069 
71 Ar 1 4.05102 3.24085 2.43069 
64 Ar 1 0.000185062 4.05102 2.43069 
68 Ar 1 1.62052 4.05102 2.43069 
72 Ar 1 3.24085 4.05102 2.43069 
74 Ar 1 0.810352 0.810352 3.24085 
73 Ar 1 0.000185062 0.000185062 3.24085 
77 Ar 1 1.62052 0.000185062 3.24085 
78 Ar 1 2.43069 0.810352 3.24085 
81 Ar 1 3.24085 0.000185062 3.24085 
82 Ar 1 4.05102 0.810352 3.24085 
85 Ar 1 0.000185062 1.62052 3.24085 
89 Ar 1 1.62052 1.62052 3.24085 
93 Ar 1 3.24085 1.62052 3.24085 
86 Ar 1 0.810352 2.43069 3.24085 
90 Ar 1 2.43069 2.43069 3.24085 
94 Ar 1 4.05102 2.43069 3.24085 
97 Ar 1 0.000185062 3.24085 3.24085 
101 Ar 1 1.62052 3.24085 3.24085 
105 Ar 1 3.24085 3.24085 3.24085 
98 Ar 1 0.810352 4.05102 3.24085 
102 Ar 1 2.43069 4.05102 3.24085 
106 Ar 1 4.05102 4.05102 3.24085 
75 Ar 1 0.810352 0.000185062 4.05102 
76 Ar 1 0.000185062 0.810352 4.05102 
80 Ar 1 1.62052 0.810352 4.05102 
79 Ar 1 2.43069 0.000185062 4.05102 
84 Ar 1 3.24085 0.810352 4.05102 
83 Ar 1 4.05102 0.000185062 4.05102 
87 Ar 1 0.810352 1.62052 4.05102 
91 Ar 1 2.43069 1.62052 4.05102 
95 Ar 1 4.05102 1.62052 4.05102 
88 Ar 1 0.000185062 2.43069 4.05102 
92 Ar 1 1.62052 2.43069 4.05102 
96 Ar 1 3.24085 2.43069 4.05102 
99 Ar 1 0.810352 3.24085 4.05102 
103 Ar 1 2.43069 3.24085 4.05102 
107 Ar 1 4.05102 3.24085 4.05102 
100 Ar 1 0.000185062 4.05102 4.05102 
104 Ar 1 1.62052 4.05102 4.05102 
108 Ar 1 3.24085 4.05102 4.05102 
