LAMMPS (18 Sep 2018)

#Test t2
#Variables-----------------------------------------------------------------#
variable T1 equal 	0.72
variable T2 equal   1.44
variable L0 equal 	0.0
variable L1 equal 	4.861


#Initialization parameters-------------------------------------------------#
units 	 		lj
dimension		3
boundary		p p p
#atom_style		full

atom_modify map yes



#Box and atom creation-----------------------------------------------------#
region 			R1 block ${L0} ${L1} ${L0} ${L1} ${L0} ${L1}
region 			R1 block 0 ${L1} ${L0} ${L1} ${L0} ${L1}
region 			R1 block 0 4.861 ${L0} ${L1} ${L0} ${L1}
region 			R1 block 0 4.861 0 ${L1} ${L0} ${L1}
region 			R1 block 0 4.861 0 4.861 ${L0} ${L1}
region 			R1 block 0 4.861 0 4.861 0 ${L1}
region 			R1 block 0 4.861 0 4.861 0 4.861
create_box 		1 R1
Created orthogonal box = (0 0 0) to (4.861 4.861 4.861)
  1 by 1 by 3 MPI processor grid
lattice 		fcc 0.94
Lattice spacing in x,y,z = 1.62048 1.62048 1.62048
create_atoms 	1 box
Created 108 atoms
  Time spent = 0.000279903 secs
mass 			1 39.948


#LJ interactions-----------------------------------------------------------#
pair_style lj/cut 2.937
pair_coeff * * 1.0 1.0 2.937
pair_modify shift yes

#dump a movie every 100 tsteps---------------------------------------------#
#dump	     dumpmovie all movie 100 movie1.mpg type type box yes 0.01 #zoom 2.0


#create velocities 1-------------------------------------------------------#
velocity all create  ${T1}  26493 dist gaussian
velocity all create  0.72  26493 dist gaussian



# #print thermo prop every 500 steps-----------------------------------------#
thermo_style custom pe ke etotal temp  press  step #c_ccf_test
thermo 10000


# #set timestep, nve integrator and run1-------------------------------------#
timestep 		0.0005
fix 1nve all nve
run 			60000
Neighbor list info ...
  update every 1 steps, delay 10 steps, check yes
  max neighbors/atom: 2000, page size: 100000
  master list distance cutoff = 3.237
  ghost atom cutoff = 3.237
  binsize = 1.6185, bins = 4 4 4
  1 neighbor lists, perpetual/occasional/extra = 1 0 0
  (1) pair lj/cut, perpetual
      attributes: half, newton on
      pair build: half/bin/atomonly/newton
      stencil: half/bin/3d/newton
      bin: standard
Per MPI rank memory allocation (min/avg/max) = 3.083 | 3.083 | 3.083 Mbytes
PotEng KinEng TotEng Temp Press Step 
  -7.4176693         1.07   -6.3476693         0.72   -4.8660422        0 
  -6.9126626   0.56499364    -6.347669   0.38018264   -2.3546221    10000 
  -6.9231874   0.57551847    -6.347669   0.38726476    -2.398435    20000 
  -6.9514955   0.60382683   -6.3476686   0.40631338   -2.5504246    30000 
  -6.9368989   0.58923055   -6.3476684   0.39649158   -2.5269112    40000 
  -6.9267609   0.57909243   -6.3476684   0.38966967   -2.4154289    50000 
  -6.8964915   0.54882288   -6.3476687   0.36930138    -2.325972    60000 
Loop time of 4.21028 on 3 procs for 60000 steps with 108 atoms

Performance: 615635.675 tau/day, 14250.826 timesteps/s
98.9% CPU use with 3 MPI tasks x no OpenMP threads

MPI task timing breakdown:
Section |  min time  |  avg time  |  max time  |%varavg| %total
---------------------------------------------------------------
Pair    | 1.5971     | 2.39       | 2.8112     |  36.3 | 56.76
Neigh   | 0.0054221  | 0.0067991  | 0.0075271  |   1.2 |  0.16
Comm    | 1.1788     | 1.5928     | 2.3867     |  44.5 | 37.83
Output  | 0.00010657 | 0.0001204  | 0.0001471  |   0.0 |  0.00
Modify  | 0.030504   | 0.04439    | 0.051376   |   4.7 |  1.05
Other   |            | 0.1763     |            |       |  4.19

Nlocal:    36 ave 41 max 31 min
Histogram: 1 0 0 0 0 1 0 0 0 1
Nghost:    960.667 ave 992 max 925 min
Histogram: 1 0 0 0 0 1 0 0 0 1
Neighs:    2461 ave 2783 max 2140 min
Histogram: 1 0 0 0 1 0 0 0 0 1

Total # of neighbors = 7383
Ave neighs/atom = 68.3611
Neighbor list builds = 65
Dangerous builds = 0
unfix 1nve




# #Minimize sd style---------------------------------------------------------#
min_style sd
minimize	0.0 0.0 10000 10000
WARNING: Using 'neigh_modify every 1 delay 0 check yes' setting during minimization (../min.cpp:168)
Per MPI rank memory allocation (min/avg/max) = 4.21 | 4.211 | 4.214 Mbytes
PotEng KinEng TotEng Temp Press Step 
  -6.8964915   0.54882288   -6.3476687   0.36930138    -2.325972    60000 
   -7.417672   0.54882288   -6.8688491   0.36930138   -5.1927545    65000 
Loop time of 1.13129 on 3 procs for 5000 steps with 108 atoms

99.6% CPU use with 3 MPI tasks x no OpenMP threads

Minimization stats:
  Stopping criterion = max force evaluations
  Energy initial, next-to-last, final = 
        -6.89649153888     -7.41767199114     -7.41767199114
  Force two-norm initial, final = 179.189 3.11141e-13
  Force max component initial, final = 34.5403 7.10543e-14
  Final line search alpha, max atom move = 1 7.10543e-14
  Iterations, force evaluations = 5000 10000

MPI task timing breakdown:
Section |  min time  |  avg time  |  max time  |%varavg| %total
---------------------------------------------------------------
Pair    | 0.47079    | 0.7166     | 0.88282    |  21.0 | 63.34
Neigh   | 0.00071645 | 0.00094207 | 0.0010579  |   0.0 |  0.08
Comm    | 0.17735    | 0.33978    | 0.58133    |  29.9 | 30.04
Output  | 0          | 0          | 0          |   0.0 |  0.00
Modify  | 0          | 0          | 0          |   0.0 |  0.00
Other   |            | 0.07396    |            |       |  6.54

Nlocal:    36 ave 39 max 34 min
Histogram: 1 0 1 0 0 0 0 0 0 1
Nghost:    930.333 ave 947 max 909 min
Histogram: 1 0 0 0 0 0 1 0 0 1
Neighs:    2461.67 ave 2658 max 2332 min
Histogram: 1 1 0 0 0 0 0 0 0 1

Total # of neighbors = 7385
Ave neighs/atom = 68.3796
Neighbor list builds = 9
Dangerous builds = 0



# call to compute ccf
# compute ccf_test all ccf cutoff 2
# dump d1 all custom 1000 ccf-file-*.txt id c_ccf_test
#compute stein3 all ccf cutoff 1.5
compute stein3 all ccf  cutoff 1.5  degrees 1 3 components 3 nnn NULL

dump            dump_stein3 all custom 10000 steinh3-*.txt id c_stein3[*]

#dump       1 all custom 500 argon.argon id element type x y z

#dump_modify   1 element Ar
#run 0
#undump 1



# dump      adump1 all movie 10 movie1.mpg type type box yes 0.1 zoom 1.0 subbox yes 0.01
# dump_modify adump1 adiam 1 0.1
#-----dump an image
# dump       22 all image 10 image1-*.jpeg type type atom yes adiam 0.4 box yes 0.05 subbox yes 0.01
# run 30
# undump 22


#create velocities 2-------------------------------------------------------#
velocity all create  ${T2}  39566 dist gaussian
velocity all create  1.44  39566 dist gaussian

#set timestep, nve integrator and run2-------------------------------------#
fix 2nve all nve

# ComputeCCF() is invoked here
run 			20000
Neighbor list info ...
  update every 1 steps, delay 10 steps, check yes
  max neighbors/atom: 2000, page size: 100000
  master list distance cutoff = 3.237
  ghost atom cutoff = 3.237
  binsize = 1.6185, bins = 4 4 4
  2 neighbor lists, perpetual/occasional/extra = 1 1 0
  (1) pair lj/cut, perpetual
      attributes: half, newton on
      pair build: half/bin/atomonly/newton
      stencil: half/bin/3d/newton
      bin: standard
  (2) compute ccf, occasional
      attributes: full, newton on
      pair build: full/bin/atomonly
      stencil: full/bin/3d
      bin: standard
Per MPI rank memory allocation (min/avg/max) = 3.715 | 3.716 | 3.718 Mbytes
PotEng KinEng TotEng Temp Press Step 
   -7.417672         2.14    -5.277672         1.44   -4.1953435    65000 
  -6.3335183    1.0558466   -5.2776717   0.71047619    1.1085746    70000 
  -6.4394595    1.1617879   -5.2776716   0.78176385   0.50552091    80000 
  -6.5291669    1.2514957   -5.2776712   0.84212792  0.091828465    85000 
Loop time of 1.42769 on 3 procs for 20000 steps with 108 atoms

Performance: 605173.447 tau/day, 14008.645 timesteps/s
98.9% CPU use with 3 MPI tasks x no OpenMP threads

MPI task timing breakdown:
Section |  min time  |  avg time  |  max time  |%varavg| %total
---------------------------------------------------------------
Pair    | 0.5596     | 0.81394    | 0.9531     |  20.0 | 57.01
Neigh   | 0.0027862  | 0.0033613  | 0.0036755  |   0.7 |  0.24
Comm    | 0.39465    | 0.53187    | 0.78679    |  24.7 | 37.25
Output  | 0.0015645  | 0.0015705  | 0.0015814  |   0.0 |  0.11
Modify  | 0.011093   | 0.0155     | 0.017952   |   2.5 |  1.09
Other   |            | 0.06144    |            |       |  4.30

Nlocal:    36 ave 38 max 34 min
Histogram: 1 0 0 0 0 1 0 0 0 1
Nghost:    918 ave 925 max 908 min
Histogram: 1 0 0 0 0 0 0 1 0 1
Neighs:    2445 ave 2600 max 2303 min
Histogram: 1 0 0 0 1 0 0 0 0 1
FullNghs:  4912.67 ave 5191 max 4633 min
Histogram: 1 0 0 0 0 1 0 0 0 1

Total # of neighbors = 14738
Ave neighs/atom = 136.463
Neighbor list builds = 31
Dangerous builds = 0

unfix 2nve




# dump positions of atoms every 10 times steps------------------------------#
# dump	        d1 all custom 1000 uni-file-*.txt id type element x y z xs ys zs xu yu zu xsu ysu zsu ix iy iz q vx vy vz
# dump_modify     d1 pad 8


# set timestep, nve integrator and run3-------------------------------------#
# fix 3nve all nve
# run 			200000
# unfix 3nve





#END
Total wall time: 0:00:06
