LAMMPS (18 Sep 2018)

#Test t2
#Variables-----------------------------------------------------------------#
variable T1 equal 	0.72
variable T2 equal   1.44
variable L0 equal 	0.0
variable L1 equal 	4.861


#Initialization parameters-------------------------------------------------#
units 	 		lj
dimension		3
boundary		p p p
#atom_style		full


#Box and atom creation-----------------------------------------------------#
region 			R1 block ${L0} ${L1} ${L0} ${L1} ${L0} ${L1}
region 			R1 block 0 ${L1} ${L0} ${L1} ${L0} ${L1}
region 			R1 block 0 4.861 ${L0} ${L1} ${L0} ${L1}
region 			R1 block 0 4.861 0 ${L1} ${L0} ${L1}
region 			R1 block 0 4.861 0 4.861 ${L0} ${L1}
region 			R1 block 0 4.861 0 4.861 0 ${L1}
region 			R1 block 0 4.861 0 4.861 0 4.861
create_box 		1 R1
Created orthogonal box = (0 0 0) to (4.861 4.861 4.861)
  1 by 1 by 1 MPI processor grid
lattice 		fcc 0.94
Lattice spacing in x,y,z = 1.62048 1.62048 1.62048
create_atoms 	1 box
Created 108 atoms
  Time spent = 0.000225782 secs
mass 			1 39.948


#LJ interactions-----------------------------------------------------------#
pair_style lj/cut 2.937
pair_coeff * * 1.0 1.0 2.937
pair_modify shift yes

#dump a movie every 100 tsteps---------------------------------------------#
#dump	     dumpmovie all movie 100 movie1.mpg type type box yes 0.01 #zoom 2.0


#create velocities 1-------------------------------------------------------#
velocity all create  ${T1}  26493 dist gaussian
velocity all create  0.72  26493 dist gaussian



# #print thermo prop every 500 steps-----------------------------------------#
thermo_style custom pe ke etotal temp  press  step #c_ccf_test
thermo 2000


# #set timestep, nve integrator and run1-------------------------------------#
timestep 		0.0005
fix 1nve all nve
run 			60000
Neighbor list info ...
  update every 1 steps, delay 10 steps, check yes
  max neighbors/atom: 2000, page size: 100000
  master list distance cutoff = 3.237
  ghost atom cutoff = 3.237
  binsize = 1.6185, bins = 4 4 4
  1 neighbor lists, perpetual/occasional/extra = 1 0 0
  (1) pair lj/cut, perpetual
      attributes: half, newton on
      pair build: half/bin/atomonly/newton
      stencil: half/bin/3d/newton
      bin: standard
Per MPI rank memory allocation (min/avg/max) = 3.097 | 3.097 | 3.097 Mbytes
PotEng KinEng TotEng Temp Press Step 
  -7.4176693         1.07   -6.3476693         0.72   -4.8660422        0 
   -6.835469   0.48779985   -6.3476692   0.32823915   -1.9722556     2000 
  -6.9121596   0.56449052   -6.3476691   0.37984409   -2.3785951     4000 
  -6.9512426   0.60357356   -6.3476691   0.40614296   -2.5530935     6000 
  -6.9316025   0.58393343   -6.3476691   0.39292717   -2.4097343     8000 
  -6.9126626   0.56499364    -6.347669   0.38018264   -2.3546221    10000 
  -6.9030237   0.55535472   -6.3476689   0.37369664   -2.2751382    12000 
  -6.9135611   0.56589214   -6.3476689   0.38078723    -2.390523    14000 
  -6.9030398    0.5553708    -6.347669   0.37370745   -2.3117243    16000 
  -6.9765152   0.62884614   -6.3476691    0.4231488   -2.7147085    18000 
  -6.9231874   0.57551847    -6.347669   0.38726476    -2.398435    20000 
  -6.9192329   0.57156397   -6.3476689   0.38460379   -2.3954182    22000 
  -6.9375272   0.58985849   -6.3476688   0.39691413   -2.4533905    24000 
  -6.8598498   0.51218112   -6.3476687   0.34464524    -2.127807    26000 
  -6.9227013   0.57503264   -6.3476687   0.38693785    -2.430446    28000 
  -6.9514955   0.60382683   -6.3476686   0.40631338   -2.5504246    30000 
  -6.8607984   0.51312984   -6.3476686   0.34528363   -2.1687418    32000 
  -6.9050774   0.55740896   -6.3476685   0.37507893   -2.3010614    34000 
  -6.8871611   0.53949283   -6.3476683   0.36302321   -2.2551551    36000 
  -6.8780258   0.53035749   -6.3476683   0.35687607   -2.1923119    38000 
  -6.9368989   0.58923055   -6.3476684   0.39649158   -2.5269112    40000 
  -6.9109997   0.56333141   -6.3476683   0.37906412   -2.3665919    42000 
  -6.9148368   0.56716847   -6.3476683   0.38164607   -2.3672755    44000 
  -6.8909001   0.54323177   -6.3476683   0.36553914   -2.2412542    46000 
  -6.9123965   0.56472816   -6.3476683   0.38000399   -2.3755698    48000 
  -6.9267609   0.57909243   -6.3476684   0.38966967   -2.4154289    50000 
  -6.9215245   0.57385604   -6.3476685   0.38614612   -2.4343908    52000 
  -6.9016616   0.55399299   -6.3476686   0.37278033    -2.364936    54000 
  -6.9196521   0.57198351   -6.3476686    0.3848861   -2.4171931    56000 
  -6.8872012   0.53953262   -6.3476686   0.36304999   -2.2408686    58000 
  -6.8964915   0.54882288   -6.3476687   0.36930138    -2.325972    60000 
Loop time of 6.24692 on 1 procs for 60000 steps with 108 atoms

Performance: 414924.341 tau/day, 9604.730 timesteps/s
99.9% CPU use with 1 MPI tasks x no OpenMP threads

MPI task timing breakdown:
Section |  min time  |  avg time  |  max time  |%varavg| %total
---------------------------------------------------------------
Pair    | 5.7987     | 5.7987     | 5.7987     |   0.0 | 92.82
Neigh   | 0.014458   | 0.014458   | 0.014458   |   0.0 |  0.23
Comm    | 0.29977    | 0.29977    | 0.29977    |   0.0 |  4.80
Output  | 0.0006566  | 0.0006566  | 0.0006566  |   0.0 |  0.01
Modify  | 0.068333   | 0.068333   | 0.068333   |   0.0 |  1.09
Other   |            | 0.06505    |            |       |  1.04

Nlocal:    108 ave 108 max 108 min
Histogram: 1 0 0 0 0 0 0 0 0 0
Nghost:    1259 ave 1259 max 1259 min
Histogram: 1 0 0 0 0 0 0 0 0 0
Neighs:    7383 ave 7383 max 7383 min
Histogram: 1 0 0 0 0 0 0 0 0 0

Total # of neighbors = 7383
Ave neighs/atom = 68.3611
Neighbor list builds = 65
Dangerous builds = 0
unfix 1nve




# #Minimize sd style---------------------------------------------------------#
min_style sd
minimize	0.0 0.0 10000 10000
WARNING: Using 'neigh_modify every 1 delay 0 check yes' setting during minimization (../min.cpp:168)
Per MPI rank memory allocation (min/avg/max) = 4.225 | 4.225 | 4.225 Mbytes
PotEng KinEng TotEng Temp Press Step 
  -6.8964915   0.54882288   -6.3476687   0.36930138    -2.325972    60000 
   -7.417672   0.54882288   -6.8688491   0.36930138   -5.1927545    62000 
   -7.417672   0.54882288   -6.8688491   0.36930138   -5.1927545    64000 
   -7.417672   0.54882288   -6.8688491   0.36930138   -5.1927545    65000 
Loop time of 1.61254 on 1 procs for 5000 steps with 108 atoms

100.0% CPU use with 1 MPI tasks x no OpenMP threads

Minimization stats:
  Stopping criterion = max force evaluations
  Energy initial, next-to-last, final = 
        -6.89649153888     -7.41767199114     -7.41767199114
  Force two-norm initial, final = 179.189 2.12247e-13
  Force max component initial, final = 34.5403 4.88637e-14
  Final line search alpha, max atom move = 1 4.88637e-14
  Iterations, force evaluations = 5000 10000

MPI task timing breakdown:
Section |  min time  |  avg time  |  max time  |%varavg| %total
---------------------------------------------------------------
Pair    | 1.5392     | 1.5392     | 1.5392     |   0.0 | 95.45
Neigh   | 0.00196    | 0.00196    | 0.00196    |   0.0 |  0.12
Comm    | 0.047652   | 0.047652   | 0.047652   |   0.0 |  2.96
Output  | 4.0054e-05 | 4.0054e-05 | 4.0054e-05 |   0.0 |  0.00
Modify  | 0          | 0          | 0          |   0.0 |  0.00
Other   |            | 0.0237     |            |       |  1.47

Nlocal:    108 ave 108 max 108 min
Histogram: 1 0 0 0 0 0 0 0 0 0
Nghost:    1229 ave 1229 max 1229 min
Histogram: 1 0 0 0 0 0 0 0 0 0
Neighs:    7385 ave 7385 max 7385 min
Histogram: 1 0 0 0 0 0 0 0 0 0

Total # of neighbors = 7385
Ave neighs/atom = 68.3796
Neighbor list builds = 9
Dangerous builds = 0
