LAMMPS (18 Sep 2018)

#Test t2
#Variables-----------------------------------------------------------------#
variable T1 equal 	0.72
variable T2 equal   1.44
variable L0 equal 	0.0
variable L1 equal 	4.861


#Initialization parameters-------------------------------------------------#
units 	 		lj
dimension		3
boundary		p p p
#atom_style		full


#Box and atom creation-----------------------------------------------------#
region 			R1 block ${L0} ${L1} ${L0} ${L1} ${L0} ${L1}
region 			R1 block 0 ${L1} ${L0} ${L1} ${L0} ${L1}
region 			R1 block 0 4.861 ${L0} ${L1} ${L0} ${L1}
region 			R1 block 0 4.861 0 ${L1} ${L0} ${L1}
region 			R1 block 0 4.861 0 4.861 ${L0} ${L1}
region 			R1 block 0 4.861 0 4.861 0 ${L1}
region 			R1 block 0 4.861 0 4.861 0 4.861
create_box 		1 R1
Created orthogonal box = (0 0 0) to (4.861 4.861 4.861)
  1 by 1 by 1 MPI processor grid
lattice 		fcc 0.94
Lattice spacing in x,y,z = 1.62048 1.62048 1.62048
create_atoms 	1 box
Created 108 atoms
  Time spent = 0.000216961 secs
mass 			1 39.948


#LJ interactions-----------------------------------------------------------#
pair_style lj/cut 2.937
pair_coeff * * 1.0 1.0 2.937
pair_modify shift yes

#dump a movie every 100 tsteps---------------------------------------------#
#dump	     dumpmovie all movie 100 movie1.mpg type type box yes 0.01 #zoom 2.0


#create velocities 1-------------------------------------------------------#
velocity all create  ${T1}  26493 dist gaussian
velocity all create  0.72  26493 dist gaussian


#print "started compute ccf" screen
#--------------**Write your command here**---------------------------------#
#compute ccf_test all ccf cutoff 0
#--------------------------------------------------------------------------#
#print "ended compute ccf" screen



# #print thermo prop every 500 steps-----------------------------------------#
thermo_style custom pe ke etotal temp  press  step #c_ccf_test
thermo 500


# #set timestep, nve integrator and run1-------------------------------------#
timestep 		0.0005
fix 1nve all nve
run 			60000
Neighbor list info ...
  update every 1 steps, delay 10 steps, check yes
  max neighbors/atom: 2000, page size: 100000
  master list distance cutoff = 3.237
  ghost atom cutoff = 3.237
  binsize = 1.6185, bins = 4 4 4
  1 neighbor lists, perpetual/occasional/extra = 1 0 0
  (1) pair lj/cut, perpetual
      attributes: half, newton on
      pair build: half/bin/atomonly/newton
      stencil: half/bin/3d/newton
      bin: standard
Per MPI rank memory allocation (min/avg/max) = 3.097 | 3.097 | 3.097 Mbytes
PotEng KinEng TotEng Temp Press Step 
  -7.4176693         1.07   -6.3476693         0.72   -4.8660422        0 
  -7.1690124    0.8213431   -6.3476693   0.55267947   -3.5790198      500 
   -6.698576   0.35090699    -6.347669   0.23612433   -1.3146699     1000 
  -6.7519991   0.40432991   -6.3476692   0.27207246   -1.5245771     1500 
   -6.835469   0.48779985   -6.3476692   0.32823915   -1.9722556     2000 
  -6.7996657   0.45199665    -6.347669   0.30414728   -1.8206891     2500 
  -6.8344952   0.48682614   -6.3476691   0.32758395   -1.9570212     3000 
   -6.877866   0.53019693   -6.3476691   0.35676803    -2.177086     3500 
  -6.9121596   0.56449052   -6.3476691   0.37984409   -2.3785951     4000 
  -6.9481352   0.60046607   -6.3476691   0.40405193   -2.5624606     4500 
  -6.9251319    0.5774628   -6.3476691    0.3885731   -2.4575263     5000 
  -6.9417306   0.59406147   -6.3476691    0.3997423   -2.5224146     5500 
  -6.9512426   0.60357356   -6.3476691   0.40614296   -2.5530935     6000 
   -6.904473   0.55680391   -6.3476691   0.37467179   -2.2994998     6500 
  -6.9101902   0.56252116   -6.3476691   0.37851891   -2.2745962     7000 
   -6.898207   0.55053795    -6.347669   0.37045545   -2.2247614     7500 
  -6.9316025   0.58393343   -6.3476691   0.39292717   -2.4097343     8000 
  -6.9470834   0.59941444    -6.347669   0.40334429   -2.5313093     8500 
  -6.8967432   0.54907419    -6.347669   0.36947048   -2.3065813     9000 
  -6.8278261    0.4801572   -6.3476689   0.32309643   -1.9899361     9500 
  -6.9126626   0.56499364    -6.347669   0.38018264   -2.3546221    10000 
  -6.9228223   0.57515335   -6.3476689   0.38701908   -2.4248972    10500 
  -6.8923978   0.54472894   -6.3476689   0.36654657   -2.2648165    11000 
  -6.8842257   0.53655677   -6.3476689   0.36104754   -2.1899887    11500 
  -6.9030237   0.55535472   -6.3476689   0.37369664   -2.2751382    12000 
  -6.9412349   0.59356599   -6.3476689   0.39940889   -2.4880018    12500 
  -6.9480137   0.60034476   -6.3476689   0.40397031   -2.5345969    13000 
  -6.8895623   0.54189342   -6.3476689   0.36463857   -2.2805525    13500 
  -6.9135611   0.56589214   -6.3476689   0.38078723    -2.390523    14000 
  -6.9187106   0.57104173   -6.3476689   0.38425238   -2.4243988    14500 
  -6.9022851    0.5546161    -6.347669   0.37319962   -2.3353481    15000 
  -6.8808873    0.5332184   -6.3476689   0.35880117   -2.2272513    15500 
  -6.9030398    0.5553708    -6.347669   0.37370745   -2.3117243    16000 
  -6.9169778   0.56930886    -6.347669   0.38308634   -2.3716845    16500 
  -6.8985372   0.55086822    -6.347669   0.37067768   -2.3050617    17000 
  -6.9202235   0.57255454    -6.347669   0.38527034   -2.4435224    17500 
  -6.9765152   0.62884614   -6.3476691    0.4231488   -2.7147085    18000 
   -6.941289   0.59361993    -6.347669   0.39944519   -2.5219537    18500 
  -6.8655066   0.51783772   -6.3476689   0.34845155   -2.1462317    19000 
  -6.9141033   0.56643436    -6.347669   0.38115209    -2.348205    19500 
  -6.9231874   0.57551847    -6.347669   0.38726476    -2.398435    20000 
  -6.8500189   0.50235001   -6.3476689   0.33802991   -2.0925108    20500 
  -6.8708267   0.52315777   -6.3476689    0.3520314   -2.1832105    21000 
  -6.8959118   0.54824285   -6.3476689   0.36891108   -2.3027337    21500 
  -6.9192329   0.57156397   -6.3476689   0.38460379   -2.3954182    22000 
  -6.9020366   0.55436774   -6.3476688    0.3730325   -2.3260244    22500 
  -6.9321405   0.58447163   -6.3476688   0.39328932    -2.464146    23000 
  -6.9773344   0.62966558   -6.3476688    0.4237002    -2.656066    23500 
  -6.9375272   0.58985849   -6.3476688   0.39691413   -2.4533905    24000 
  -6.8923184   0.54464967   -6.3476687   0.36649324   -2.2325643    24500 
  -6.8715106   0.52384192   -6.3476687   0.35249176   -2.1498873    25000 
  -6.8512636   0.50359498   -6.3476686   0.33886765   -2.0778479    25500 
  -6.8598498   0.51218112   -6.3476687   0.34464524    -2.127807    26000 
  -6.8879976   0.54032892   -6.3476686   0.36358582   -2.2743936    26500 
  -6.9144981   0.56682949   -6.3476686   0.38141797   -2.4005762    27000 
  -6.9241135   0.57644484   -6.3476686   0.38788812   -2.4433622    27500 
  -6.9227013   0.57503264   -6.3476687   0.38693785    -2.430446    28000 
  -6.8748337   0.52716512   -6.3476686   0.35472793   -2.2281257    28500 
  -6.8818154    0.5341467   -6.3476687   0.35942582   -2.2509995    29000 
  -6.8987461   0.55107749   -6.3476686    0.3708185   -2.3322404    29500 
  -6.9514955   0.60382683   -6.3476686   0.40631338   -2.5504246    30000 
  -6.9724061   0.62473739   -6.3476687   0.42038404   -2.6285837    30500 
  -6.9751715   0.62750287   -6.3476686   0.42224492    -2.646988    31000 
  -6.9338174   0.58614873   -6.3476687   0.39441784   -2.4753554    31500 
  -6.8607984   0.51312984   -6.3476686   0.34528363   -2.1687418    32000 
  -6.8639451   0.51627648   -6.3476686     0.347401       -2.187    32500 
   -6.883907   0.53623843   -6.3476686   0.36083334   -2.2535166    33000 
  -6.9164301   0.56876149   -6.3476686   0.38271801   -2.3540891    33500 
  -6.9050774   0.55740896   -6.3476685   0.37507893   -2.3010614    34000 
  -6.9105352    0.5628667   -6.3476684   0.37875143   -2.3590483    34500 
  -6.9402861   0.59261774   -6.3476684   0.39877082   -2.5110213    35000 
  -6.8998214   0.55215309   -6.3476684   0.37154226   -2.3237822    35500 
  -6.8871611   0.53949283   -6.3476683   0.36302321   -2.2551551    36000 
  -6.9500767   0.60240834   -6.3476683   0.40535888   -2.5467518    36500 
  -6.9553217   0.60765337   -6.3476683   0.40888825   -2.5747129    37000 
  -6.8869121   0.53924382   -6.3476683   0.36285566   -2.2437621    37500 
  -6.8780258   0.53035749   -6.3476683   0.35687607   -2.1923119    38000 
  -6.8854483   0.53778008   -6.3476683   0.36187071   -2.2739922    38500 
  -6.8962405   0.54857222   -6.3476682   0.36913271   -2.3669719    39000 
   -6.929305   0.58163664   -6.3476683   0.39138166   -2.5183736    39500 
  -6.9368989   0.58923055   -6.3476684   0.39649158   -2.5269112    40000 
  -6.8907834    0.5431151   -6.3476683   0.36546063   -2.2949342    40500 
  -6.8847482   0.53707996   -6.3476683    0.3613996   -2.2682666    41000 
  -6.9005455    0.5528772   -6.3476683   0.37202952   -2.3473117    41500 
  -6.9109997   0.56333141   -6.3476683   0.37906412   -2.3665919    42000 
  -6.8930216   0.54535332   -6.3476683   0.36696672   -2.2651786    42500 
  -6.8894947    0.5418264   -6.3476683   0.36459347   -2.2485537    43000 
    -6.90475   0.55708172   -6.3476683   0.37485873   -2.3079752    43500 
  -6.9148368   0.56716847   -6.3476683   0.38164607   -2.3672755    44000 
  -6.9693842   0.62171586   -6.3476683   0.41835086    -2.631322    44500 
  -6.9542744   0.60660608   -6.3476683   0.40818353    -2.584316    45000 
  -6.9143124   0.56664407   -6.3476683   0.38129321   -2.3863202    45500 
  -6.8909001   0.54323177   -6.3476683   0.36553914   -2.2412542    46000 
  -6.8888392   0.54117085   -6.3476683   0.36415235   -2.2087367    46500 
  -6.8864339   0.53876559   -6.3476683   0.36253386   -2.2205453    47000 
   -6.914148   0.56647969   -6.3476683    0.3811826   -2.3656338    47500 
  -6.9123965   0.56472816   -6.3476683   0.38000399   -2.3755698    48000 
  -6.9122747    0.5646064   -6.3476683   0.37992206   -2.3608607    48500 
  -6.8681106   0.52044229   -6.3476683   0.35020415   -2.1492292    49000 
  -6.8859359   0.53826751   -6.3476684    0.3621987   -2.2249603    49500 
  -6.9267609   0.57909243   -6.3476684   0.38966967   -2.4154289    50000 
  -6.9102579   0.56258941   -6.3476685   0.37856484   -2.3448698    50500 
  -6.8827191   0.53505068   -6.3476684    0.3600341   -2.2179585    51000 
  -6.8968942   0.54922571   -6.3476685   0.36957244   -2.2981411    51500 
  -6.9215245   0.57385604   -6.3476685   0.38614612   -2.4343908    52000 
  -6.9137526   0.56608415   -6.3476684   0.38091644   -2.4169143    52500 
  -6.9462683   0.59859986   -6.3476685   0.40279617   -2.5668384    53000 
  -6.9659853   0.61831669   -6.3476686   0.41606357    -2.657308    53500 
  -6.9016616   0.55399299   -6.3476686   0.37278033    -2.364936    54000 
  -6.8589535   0.51128487   -6.3476686   0.34404216   -2.1478696    54500 
  -6.8497529   0.50208427   -6.3476686    0.3378511   -2.1036233    55000 
  -6.9235354   0.57586673   -6.3476687   0.38749911   -2.4271794    55500 
  -6.9196521   0.57198351   -6.3476686    0.3848861   -2.4171931    56000 
  -6.9190095   0.57134095   -6.3476685   0.38445372    -2.408735    56500 
  -6.9386565   0.59098797   -6.3476685   0.39767415    -2.502869    57000 
   -6.922432   0.57476329   -6.3476687   0.38675661   -2.4215416    57500 
  -6.8872012   0.53953262   -6.3476686   0.36304999   -2.2408686    58000 
  -6.8719044   0.52423577   -6.3476686   0.35275678   -2.1726552    58500 
  -6.9071459    0.5594773   -6.3476686   0.37647071   -2.3388788    59000 
  -6.9386706    0.5910019   -6.3476687   0.39768352   -2.4818075    59500 
  -6.8964915   0.54882288   -6.3476687   0.36930138    -2.325972    60000 
Loop time of 6.35595 on 1 procs for 60000 steps with 108 atoms

Performance: 407807.126 tau/day, 9439.980 timesteps/s
99.9% CPU use with 1 MPI tasks x no OpenMP threads

MPI task timing breakdown:
Section |  min time  |  avg time  |  max time  |%varavg| %total
---------------------------------------------------------------
Pair    | 5.795      | 5.795      | 5.795      |   0.0 | 91.17
Neigh   | 0.014696   | 0.014696   | 0.014696   |   0.0 |  0.23
Comm    | 0.37029    | 0.37029    | 0.37029    |   0.0 |  5.83
Output  | 0.0026729  | 0.0026729  | 0.0026729  |   0.0 |  0.04
Modify  | 0.086776   | 0.086776   | 0.086776   |   0.0 |  1.37
Other   |            | 0.08656    |            |       |  1.36

Nlocal:    108 ave 108 max 108 min
Histogram: 1 0 0 0 0 0 0 0 0 0
Nghost:    1259 ave 1259 max 1259 min
Histogram: 1 0 0 0 0 0 0 0 0 0
Neighs:    7383 ave 7383 max 7383 min
Histogram: 1 0 0 0 0 0 0 0 0 0

Total # of neighbors = 7383
Ave neighs/atom = 68.3611
Neighbor list builds = 65
Dangerous builds = 0
unfix 1nve




# #Minimize sd style---------------------------------------------------------#
min_style sd
minimize	0.0 0.0 10000 10000
WARNING: Using 'neigh_modify every 1 delay 0 check yes' setting during minimization (../min.cpp:168)
Per MPI rank memory allocation (min/avg/max) = 4.225 | 4.225 | 4.225 Mbytes
PotEng KinEng TotEng Temp Press Step 
  -6.8964915   0.54882288   -6.3476687   0.36930138    -2.325972    60000 
   -7.417672   0.54882288   -6.8688491   0.36930138   -5.1927545    60500 
   -7.417672   0.54882288   -6.8688491   0.36930138   -5.1927545    61000 
   -7.417672   0.54882288   -6.8688491   0.36930138   -5.1927545    61500 
   -7.417672   0.54882288   -6.8688491   0.36930138   -5.1927545    62000 
   -7.417672   0.54882288   -6.8688491   0.36930138   -5.1927545    62500 
   -7.417672   0.54882288   -6.8688491   0.36930138   -5.1927545    63000 
   -7.417672   0.54882288   -6.8688491   0.36930138   -5.1927545    63500 
   -7.417672   0.54882288   -6.8688491   0.36930138   -5.1927545    64000 
   -7.417672   0.54882288   -6.8688491   0.36930138   -5.1927545    64500 
   -7.417672   0.54882288   -6.8688491   0.36930138   -5.1927545    65000 
Loop time of 1.57769 on 1 procs for 5000 steps with 108 atoms

100.0% CPU use with 1 MPI tasks x no OpenMP threads

Minimization stats:
  Stopping criterion = max force evaluations
  Energy initial, next-to-last, final = 
        -6.89649153888     -7.41767199114     -7.41767199114
  Force two-norm initial, final = 179.189 2.12247e-13
  Force max component initial, final = 34.5403 4.88637e-14
  Final line search alpha, max atom move = 1 4.88637e-14
  Iterations, force evaluations = 5000 10000

MPI task timing breakdown:
Section |  min time  |  avg time  |  max time  |%varavg| %total
---------------------------------------------------------------
Pair    | 1.4959     | 1.4959     | 1.4959     |   0.0 | 94.82
Neigh   | 0.0026844  | 0.0026844  | 0.0026844  |   0.0 |  0.17
Comm    | 0.052353   | 0.052353   | 0.052353   |   0.0 |  3.32
Output  | 0.00017238 | 0.00017238 | 0.00017238 |   0.0 |  0.01
Modify  | 0          | 0          | 0          |   0.0 |  0.00
Other   |            | 0.02653    |            |       |  1.68

Nlocal:    108 ave 108 max 108 min
Histogram: 1 0 0 0 0 0 0 0 0 0
Nghost:    1229 ave 1229 max 1229 min
Histogram: 1 0 0 0 0 0 0 0 0 0
Neighs:    7385 ave 7385 max 7385 min
Histogram: 1 0 0 0 0 0 0 0 0 0

Total # of neighbors = 7385
Ave neighs/atom = 68.3796
Neighbor list builds = 9
Dangerous builds = 0


compute ccf_test all ccf cutoff 0
ERROR: cutsq == 0 (../compute_ccf.cpp:83)
Last command: compute ccf_test all ccf cutoff 0
