LAMMPS (18 Sep 2018)

#Test t2
#Variables-----------------------------------------------------------------#
variable T1 equal 	0.72
variable T2 equal   1.44
variable L0 equal 	0.0
variable L1 equal 	4.861


#Initialization parameters-------------------------------------------------#
units 	 		lj
dimension		3
boundary		p p p
#atom_style		full

atom_modify map yes



#Box and atom creation-----------------------------------------------------#
region 			R1 block ${L0} ${L1} ${L0} ${L1} ${L0} ${L1}
region 			R1 block 0 ${L1} ${L0} ${L1} ${L0} ${L1}
region 			R1 block 0 4.861 ${L0} ${L1} ${L0} ${L1}
region 			R1 block 0 4.861 0 ${L1} ${L0} ${L1}
region 			R1 block 0 4.861 0 4.861 ${L0} ${L1}
region 			R1 block 0 4.861 0 4.861 0 ${L1}
region 			R1 block 0 4.861 0 4.861 0 4.861
create_box 		1 R1
Created orthogonal box = (0 0 0) to (4.861 4.861 4.861)
  1 by 1 by 3 MPI processor grid
lattice 		fcc 0.94
Lattice spacing in x,y,z = 1.62048 1.62048 1.62048
create_atoms 	1 box
Created 108 atoms
  Time spent = 0.00033927 secs
mass 			1 39.948


#LJ interactions-----------------------------------------------------------#
pair_style lj/cut 6.5 #2.937
pair_coeff * * 1.0 1.0 6.5 #2.937
pair_modify shift yes

#dump a movie every 100 tsteps---------------------------------------------#
#dump	     dumpmovie all movie 100 movie1.mpg type type box yes 0.01 #zoom 2.0


#create velocities 1-------------------------------------------------------#
velocity all create  ${T1}  26493 dist gaussian
velocity all create  0.72  26493 dist gaussian



# #print thermo prop every 500 steps-----------------------------------------#
thermo_style custom pe ke etotal temp  press  step #c_ccf_test
thermo 10000


# #set timestep, nve integrator and run1-------------------------------------#
timestep 		0.0005
fix 1nve all nve
run 			60000
Neighbor list info ...
  update every 1 steps, delay 10 steps, check yes
  max neighbors/atom: 2000, page size: 100000
  master list distance cutoff = 6.8
  ghost atom cutoff = 6.8
  binsize = 3.4, bins = 2 2 2
  1 neighbor lists, perpetual/occasional/extra = 1 0 0
  (1) pair lj/cut, perpetual
      attributes: half, newton on
      pair build: half/bin/atomonly/newton
      stencil: half/bin/3d/newton
      bin: standard
Per MPI rank memory allocation (min/avg/max) = 3.096 | 3.096 | 3.096 Mbytes
PotEng KinEng TotEng Temp Press Step 
  -7.9799934         1.07   -6.9099934         0.72   -5.4727837        0 
  -7.4768804   0.56688706   -6.9099934   0.38145671   -2.9322973    10000 
  -7.4860476   0.57605422   -6.9099934   0.38762527   -2.9681183    20000 
  -7.5185742   0.60858086   -6.9099934   0.40951236   -3.1488261    30000 
  -7.4944682   0.58447482   -6.9099934   0.39329147    -3.070544    40000 
  -7.4725538   0.56256048   -6.9099934   0.37854537   -2.8704311    50000 
  -7.5130387   0.60304537   -6.9099934   0.40578754    -3.143104    60000 
Loop time of 38.9033 on 3 procs for 60000 steps with 108 atoms

Performance: 66626.820 tau/day, 1542.287 timesteps/s
98.9% CPU use with 3 MPI tasks x no OpenMP threads

MPI task timing breakdown:
Section |  min time  |  avg time  |  max time  |%varavg| %total
---------------------------------------------------------------
Pair    | 17.581     | 23.896     | 33.292     | 138.6 | 61.42
Neigh   | 0.031835   | 0.041236   | 0.053294   |   4.4 |  0.11
Comm    | 5.0392     | 14.471     | 20.834     | 178.9 | 37.20
Output  | 0.00011134 | 0.00018684 | 0.00032926 |   0.0 |  0.00
Modify  | 0.035974   | 0.048008   | 0.054387   |   3.9 |  0.12
Other   |            | 0.4469     |            |       |  1.15

Nlocal:    36 ave 37 max 34 min
Histogram: 1 0 0 0 0 0 0 0 0 2
Nghost:    4990 ave 4992 max 4989 min
Histogram: 2 0 0 0 0 0 0 0 0 1
Neighs:    22244.7 ave 28904 max 17290 min
Histogram: 1 0 1 0 0 0 0 0 0 1

Total # of neighbors = 66734
Ave neighs/atom = 617.907
Neighbor list builds = 65
Dangerous builds = 0
unfix 1nve




# #Minimize sd style---------------------------------------------------------#
min_style sd
minimize	0.0 0.0 10000 10000
WARNING: Using 'neigh_modify every 1 delay 0 check yes' setting during minimization (../min.cpp:168)
Per MPI rank memory allocation (min/avg/max) = 4.221 | 4.221 | 4.221 Mbytes
PotEng KinEng TotEng Temp Press Step 
  -7.5130387   0.60304537   -6.9099934   0.40578754    -3.143104    60000 
  -7.9799961   0.60304537   -7.3769508   0.40578754   -5.7655073    65001 
Loop time of 11.9058 on 3 procs for 5001 steps with 108 atoms

98.9% CPU use with 3 MPI tasks x no OpenMP threads

Minimization stats:
  Stopping criterion = max force evaluations
  Energy initial, next-to-last, final = 
        -7.51303873378     -7.97999614107     -7.97999614107
  Force two-norm initial, final = 154.938 2.94897e-13
  Force max component initial, final = 32.7641 6.37268e-14
  Final line search alpha, max atom move = 1 6.37268e-14
  Iterations, force evaluations = 5001 10001

MPI task timing breakdown:
Section |  min time  |  avg time  |  max time  |%varavg| %total
---------------------------------------------------------------
Pair    | 5.4874     | 7.7702     | 10.856     |  81.2 | 65.26
Neigh   | 0.0051441  | 0.0059713  | 0.0073915  |   1.3 |  0.05
Comm    | 0.90855    | 4.0005     | 6.2919     | 113.5 | 33.60
Output  | 0          | 0          | 0          |   0.0 |  0.00
Modify  | 0          | 0          | 0          |   0.0 |  0.00
Other   |            | 0.1291     |            |       |  1.08

Nlocal:    36 ave 37 max 35 min
Histogram: 1 0 0 0 0 1 0 0 0 1
Nghost:    4990 ave 4991 max 4989 min
Histogram: 1 0 0 0 0 1 0 0 0 1
Neighs:    22244.7 ave 26928 max 17271 min
Histogram: 1 0 0 0 0 1 0 0 0 1

Total # of neighbors = 66734
Ave neighs/atom = 617.907
Neighbor list builds = 8
Dangerous builds = 0



# call to compute ccf
# compute ccf_test all ccf cutoff 2
# dump d1 all custom 1000 ccf-file-*.txt id c_ccf_test
compute stein3 all orientorder/atom  cutoff 6.0  degrees 1 3 components 3 nnn NULL
dump            dump_stein3 all custom 20001 steinh3-*.txt id c_stein3[*]

#dump       1 all custom 500 argon.argon id element type x y z

#dump_modify   1 element Ar
#run 0
#undump 1



dump      adump1 all movie 10 movie1.mpg type type box yes 0.1 zoom 1.0 subbox yes 0.01
dump_modify adump1 adiam 1 0.1


#create velocities 2-------------------------------------------------------#
velocity all create  ${T2}  39566 dist gaussian
velocity all create  1.44  39566 dist gaussian

#set timestep, nve integrator and run2-------------------------------------#
fix 2nve all nve

# ComputeCCF() is invoked here
run 			20000
Neighbor list info ...
  update every 1 steps, delay 10 steps, check yes
  max neighbors/atom: 2000, page size: 100000
  master list distance cutoff = 6.8
  ghost atom cutoff = 6.8
  binsize = 3.4, bins = 2 2 2
  2 neighbor lists, perpetual/occasional/extra = 1 1 0
  (1) pair lj/cut, perpetual
      attributes: half, newton on
      pair build: half/bin/atomonly/newton
      stencil: half/bin/3d/newton
      bin: standard
  (2) compute orientorder/atom, occasional
      attributes: full, newton on
      pair build: full/bin/atomonly
      stencil: full/bin/3d
      bin: standard
Per MPI rank memory allocation (min/avg/max) = 3.728 | 3.728 | 3.728 Mbytes
PotEng KinEng TotEng Temp Press Step 
  -7.9799961         2.14   -5.8399961         1.44    -4.802085    65001 
  -6.8970743    1.0570783    -5.839996   0.71130504   0.55389161    70000 
  -7.0005674    1.1605715    -5.839996   0.78094529 -0.044518367    80000 
  -7.0994899    1.2594938   -5.8399961   0.84750985  -0.49270681    85001 
Loop time of 67.0319 on 3 procs for 20000 steps with 108 atoms

Performance: 12889.379 tau/day, 298.365 timesteps/s
95.4% CPU use with 3 MPI tasks x no OpenMP threads

MPI task timing breakdown:
Section |  min time  |  avg time  |  max time  |%varavg| %total
---------------------------------------------------------------
Pair    | 7.3162     | 8.7102     | 10.396     |  43.2 | 12.99
Neigh   | 0.019297   | 0.021389   | 0.024585   |   1.6 |  0.03
Comm    | 3.0477     | 4.6606     | 5.9488     |  55.9 |  6.95
Output  | 39.484     | 45.413     | 53.509     |  88.0 | 67.75
Modify  | 0.023233   | 0.02499    | 0.027313   |   1.1 |  0.04
Other   |            | 8.202      |            |       | 12.24

Nlocal:    36 ave 37 max 35 min
Histogram: 1 0 0 0 0 1 0 0 0 1
Nghost:    4990 ave 4991 max 4989 min
Histogram: 1 0 0 0 0 1 0 0 0 1
Neighs:    22240.7 ave 28249 max 16856 min
Histogram: 1 0 0 0 1 0 0 0 0 1
FullNghs:  44479.3 ave 45732 max 41994 min
Histogram: 1 0 0 0 0 0 0 0 0 2

Total # of neighbors = 133438
Ave neighs/atom = 1235.54
Neighbor list builds = 31
Dangerous builds = 0

unfix 2nve




# dump positions of atoms every 10 times steps------------------------------#
# dump	        d1 all custom 1000 uni-file-*.txt id type element x y z xs ys zs xu yu zu xsu ysu zsu ix iy iz q vx vy vz
# dump_modify     d1 pad 8


# set timestep, nve integrator and run3-------------------------------------#
# fix 3nve all nve
# run 			200000
# unfix 3nve





#END
Total wall time: 0:01:57
