ITEM: TIMESTEP
80004
ITEM: NUMBER OF ATOMS
108
ITEM: BOX BOUNDS pp pp pp
0.0000000000000000e+00 4.8609999999999998e+00
0.0000000000000000e+00 4.8609999999999998e+00
0.0000000000000000e+00 4.8609999999999998e+00
ITEM: ATOMS id c_stein3[1] c_stein3[2] c_stein3[3] c_stein3[4] c_stein3[5] c_stein3[6] c_stein3[7] c_stein3[8] c_stein3[9] c_stein3[10] c_stein3[11] c_stein3[12] c_stein3[13] c_stein3[14] c_stein3[15] 
9 0.00565944 -0.293925 -0.085486 -0.219316 -0.14306 0.492122 -0.0465913 -0.432157 0 -0.492122 -0.0465913 -0.219316 0.14306 0.293925 -0.085486 
36 0.00753276 -0.474731 -0.0208229 0.107207 0.163709 0.460863 0.0515907 -0.204189 0 -0.460863 0.0515907 0.107207 -0.163709 0.474731 -0.0208229 
3 0.00330022 0.0397055 0.176234 -0.307559 0.554978 -0.189701 -0.158042 0.0872723 0 0.189701 -0.158042 -0.307559 -0.554978 -0.0397055 0.176234 
4 0.00339517 -0.030527 -0.240661 -0.169939 0.367542 -0.503907 0.0662011 -0.194313 0 0.503907 0.0662011 -0.169939 -0.367542 0.030527 -0.240661 
22 0.00322511 -0.190753 0.138837 0.103885 -0.457742 0.372863 -0.0102162 0.412037 0 -0.372863 -0.0102162 0.103885 0.457742 0.190753 0.138837 
35 0.00686018 0.343928 -0.107755 0.0609762 0.438025 -0.0690792 -0.249408 -0.46377 0 0.0690792 -0.249408 0.0609762 -0.438025 -0.343928 -0.107755 
7 0.00318195 0.193243 -0.446527 -0.010834 -0.0877399 -0.404307 0.0944552 -0.4076 0 0.404307 0.0944552 -0.010834 0.0877399 -0.193243 -0.446527 
8 0.00699088 0.324932 0.551601 0.0390481 -0.20443 0.132665 -0.0137642 0.241041 0 -0.132665 -0.0137642 0.0390481 0.20443 -0.324932 0.551601 
1 0.00338699 0.605576 -0.244458 -0.189522 0.133801 -0.0727161 0.0286142 0.164864 0 0.0727161 0.0286142 -0.189522 -0.133801 -0.605576 -0.244458 
57 0.00675784 -0.348984 -0.0583429 -0.123829 -0.139018 0.249919 0.526854 -0.0149458 0 -0.249919 0.526854 -0.123829 0.139018 0.348984 -0.0583429 
11 0.00643293 -0.1291 -0.0603292 0.232986 -0.278328 -0.490628 0.291586 0.210741 0 0.490628 0.291586 0.232986 0.278328 0.1291 -0.0603292 
12 0.00379306 -0.442405 -0.104731 0.217773 -0.406744 0.0748705 -0.273392 0.0137506 0 -0.0748705 -0.273392 0.217773 0.406744 0.442405 -0.104731 
18 0.00214727 -0.275388 -0.0269624 -0.15753 0.408592 -0.0776558 -0.463737 0.145524 0 0.0776558 -0.463737 -0.15753 -0.408592 0.275388 -0.0269624 
41 0.0062271 -0.380519 0.2966 -0.117311 -0.385293 -0.229993 0.0996965 0.290466 0 0.229993 0.0996965 -0.117311 0.385293 0.380519 0.2966 
15 0.00491228 0.225165 -0.251508 0.18694 0.0438884 -0.530211 0.249651 -0.106982 0 0.530211 0.249651 0.18694 -0.0438884 -0.225165 -0.251508 
16 0.0054906 0.181481 0.0198354 0.287398 -0.0976506 -0.551313 0.00638234 -0.375634 0 0.551313 0.00638234 0.287398 0.0976506 -0.181481 0.0198354 
27 0.00632531 0.427749 -0.0687014 0.355059 -0.225013 -0.0196901 -0.365609 -0.0557768 0 0.0196901 -0.365609 0.355059 0.225013 -0.427749 -0.0687014 
32 0.00539297 0.322776 -0.249023 -0.34407 -0.405489 0.0839406 -0.19381 -0.113044 0 -0.0839406 -0.19381 -0.34407 0.405489 -0.322776 -0.249023 
19 0.00670429 -0.230165 0.297073 -0.332283 -0.345362 0.273205 0.231638 -0.0396809 0 -0.273205 0.231638 -0.332283 0.345362 0.230165 0.297073 
20 0.00737906 0.0368605 -0.208104 0.318256 -0.314762 -0.389869 0.0711162 -0.442531 0 0.389869 0.0711162 0.318256 0.314762 -0.0368605 -0.208104 
31 0.00486934 -0.409661 -0.272324 -0.0948764 0.133246 -0.184893 0.219218 -0.54593 0 0.184893 0.219218 -0.0948764 -0.133246 0.409661 -0.272324 
28 0.00739249 -0.154242 -0.430084 0.229835 0.102036 -0.10305 -0.128148 -0.633972 0 0.10305 -0.128148 0.229835 -0.102036 0.154242 -0.430084 
23 0.00534256 0.102892 0.29594 -0.35519 -0.406292 -0.223277 -0.150295 -0.276256 0 0.223277 -0.150295 -0.35519 0.406292 -0.102892 0.29594 
24 0.00457146 -0.091425 -0.017796 -0.465803 -0.172509 0.0439489 0.298974 -0.553671 0 -0.0439489 0.298974 -0.465803 0.172509 0.091425 -0.017796 
13 0.00339221 0.1381 0.507421 0.124204 -0.00693996 -0.369164 0.162957 -0.300466 0 0.369164 0.162957 0.124204 0.00693996 -0.1381 0.507421 
45 0.00715472 -0.568507 0.0550178 0.000230787 0.228927 0.00716349 -0.3384 0.11661 0 -0.00716349 -0.3384 0.000230787 -0.228927 0.568507 0.0550178 
6 0.006645 -0.0276059 0.293761 -0.169278 -0.278674 0.056086 -0.505664 -0.309146 0 -0.056086 -0.505664 -0.169278 0.278674 0.0276059 0.293761 
69 0.00490591 0.044013 -0.2339 -0.338686 0.076358 0.539611 -0.133872 -0.165605 0 -0.539611 -0.133872 -0.338686 -0.076358 -0.044013 -0.2339 
33 0.00473021 0.0672485 -0.233445 0.150919 0.105219 0.327404 0.438175 0.464634 0 -0.327404 0.438175 0.150919 -0.105219 -0.0672485 -0.233445 
5 0.00226122 0.391529 -0.345997 0.242876 -0.00900942 -0.319977 0.099922 0.333321 0 0.319977 0.099922 0.242876 0.00900942 -0.391529 -0.345997 
42 0.00462782 0.265068 0.0620499 0.400629 -0.207955 0.32363 -0.277089 -0.285045 0 -0.32363 -0.277089 0.400629 0.207955 -0.265068 0.0620499 
34 0.00529415 -0.188611 -0.428426 0.232512 0.198847 -0.169979 -0.283401 -0.395136 0 0.169979 -0.283401 0.232512 -0.198847 0.188611 -0.428426 
53 0.00637298 -0.094333 0.369931 -0.279015 0.156264 -0.247943 -0.0865335 0.605014 0 0.247943 -0.0865335 -0.279015 -0.156264 0.094333 0.369931 
62 0.00546561 0.250992 0.342866 0.378854 -0.254578 0.163316 -0.00812928 0.410773 0 -0.163316 -0.00812928 0.378854 0.254578 -0.250992 0.342866 
66 0.00373685 -0.0687237 -0.0840075 -0.356179 0.378486 0.421795 -0.179313 0.126812 0 -0.421795 -0.179313 -0.356179 -0.378486 0.0687237 -0.0840075 
30 0.00591707 -0.382676 0.182765 0.365175 0.0725418 0.0774307 0.310817 0.397336 0 -0.0774307 0.310817 0.365175 -0.0725418 0.382676 0.182765 
10 0.00325034 0.0116603 0.143702 0.118625 -0.110154 0.132744 -0.169511 -0.901835 0 -0.132744 -0.169511 0.118625 0.110154 -0.0116603 0.143702 
46 0.00526766 0.0408383 -0.365723 -0.181256 -0.112815 -0.414333 0.321208 0.297158 0 0.414333 0.321208 -0.181256 0.112815 -0.0408383 -0.365723 
72 0.00662237 -0.207203 -0.560843 0.0530113 -0.111447 0.314762 -0.00215301 0.237534 0 -0.314762 -0.00215301 0.0530113 0.111447 0.207203 -0.560843 
39 0.00711377 -0.202427 0.258009 0.133265 -0.348172 0.292224 0.0308443 0.578144 0 -0.292224 0.0308443 0.133265 0.348172 0.202427 0.258009 
40 0.0060341 0.357205 0.265204 0.197828 -0.313523 0.136617 -0.232868 0.428363 0 -0.136617 -0.232868 0.197828 0.313523 -0.357205 0.265204 
71 0.00437395 0.551571 -0.196303 0.00826195 -0.224133 0.234856 -0.0726556 -0.30494 0 -0.234856 -0.0726556 0.00826195 0.224133 -0.551571 -0.196303 
38 0.00709245 0.128249 -0.0360634 0.203798 0.211421 -0.391084 0.392302 0.422306 0 0.391084 0.392302 0.203798 -0.211421 -0.128249 -0.0360634 
43 0.00582457 -0.521722 -0.321979 -0.0241317 0.0843904 0.0191726 0.142242 -0.437794 0 -0.0191726 0.142242 -0.0241317 -0.0843904 0.521722 -0.321979 
44 0.00751736 -0.114627 0.531943 0.050035 0.0264946 0.225952 0.030308 0.545379 0 -0.225952 0.030308 0.050035 -0.0264946 0.114627 0.531943 
49 0.00432853 0.0286821 -0.109101 0.311858 -0.00505972 -0.355532 -0.0592427 -0.721221 0 0.355532 -0.0592427 0.311858 0.00505972 -0.0286821 -0.109101 
70 0.00449191 -0.0896442 -0.407406 0.169658 0.508803 -0.170825 -0.0918719 -0.0373799 0 0.170825 -0.0918719 0.169658 -0.508803 0.0896442 -0.407406 
47 0.0061104 -0.173112 -0.377328 -0.463171 0.0912203 -0.0486867 0.116954 -0.421328 0 0.0486867 0.116954 -0.463171 -0.0912203 0.173112 -0.377328 
48 0.00763887 -0.249148 0.0137851 0.00814927 0.637299 0.0419185 -0.0620939 -0.227621 0 -0.0419185 -0.0620939 0.00814927 -0.637299 0.249148 0.0137851 
61 0.00495805 -0.489412 0.387047 0.117947 0.0209857 -0.220364 0.160098 0.210365 0 0.220364 0.160098 0.117947 -0.0209857 0.489412 0.387047 
68 0.00486577 -0.29981 -0.589465 -0.0844826 -0.0540773 -0.0455274 0.0377355 0.313327 0 0.0455274 0.0377355 -0.0844826 0.0540773 0.29981 -0.589465 
51 0.00208978 0.12495 0.537352 -0.241467 -0.134668 0.0654453 -0.126018 0.445051 0 -0.0654453 -0.126018 -0.241467 0.134668 -0.12495 0.537352 
52 0.00527818 0.120854 0.415184 0.0973049 0.29325 -0.237878 -0.142734 0.530271 0 0.237878 -0.142734 0.0973049 -0.29325 -0.120854 0.415184 
67 0.0055828 -0.313015 -0.295199 0.287668 -0.092216 -0.143966 0.366033 -0.371257 0 0.143966 0.366033 0.287668 0.092216 0.313015 -0.295199 
58 0.00570554 -0.0948322 0.464385 0.402321 -0.214915 0.153898 0.20797 0.0270543 0 -0.153898 0.20797 0.402321 0.214915 0.0948322 0.464385 
55 0.00383807 -0.22571 0.136334 -0.0947001 -0.119499 -0.379567 -0.194829 0.671104 0 0.379567 -0.194829 -0.0947001 0.119499 0.22571 0.136334 
56 0.00747527 0.121086 0.352639 0.0978448 0.450188 -0.182722 0.324981 0.139582 0 0.182722 0.324981 0.0978448 -0.450188 -0.121086 0.352639 
98 0.00519281 0.0833609 -0.169114 -0.195128 0.403026 -0.255272 -0.426377 0.18431 0 0.255272 -0.426377 -0.195128 -0.403026 -0.0833609 -0.169114 
64 0.00397862 0.183821 -0.230781 -0.291215 0.417664 -0.218227 0.294489 -0.196741 0 0.218227 0.294489 -0.291215 -0.417664 -0.183821 -0.230781 
59 0.00427118 0.347498 0.194544 0.189302 -0.091657 -0.334722 -0.0639793 0.601713 0 0.334722 -0.0639793 0.189302 0.091657 -0.347498 0.194544 
60 0.00534817 -0.229161 -0.00987556 -0.370758 -0.489133 0.194235 0.176607 -0.0593018 0 -0.194235 0.176607 -0.370758 0.489133 0.229161 -0.00987556 
94 0.00423644 0.110117 0.39523 -0.317075 0.312766 0.363772 -0.0264729 0.0235513 0 -0.363772 -0.0264729 -0.317075 -0.312766 -0.110117 0.39523 
63 0.00397859 0.171619 -0.272143 -0.0222546 0.141737 -0.610825 -0.0495653 -0.0259372 0 0.610825 -0.0495653 -0.0222546 -0.141737 -0.171619 -0.272143 
50 0.00311743 0.0364041 -0.0022188 0.116341 0.0941353 -0.634718 0.270934 -0.0015655 0 0.634718 0.270934 0.116341 -0.0941353 -0.0364041 -0.0022188 
73 0.00449831 0.137931 0.0937173 -0.415804 0.153559 -0.147371 -0.112366 0.694802 0 0.147371 -0.112366 -0.415804 -0.153559 -0.137931 0.0937173 
106 0.00701922 0.17141 -0.0544901 0.313032 -0.420891 0.0863163 -0.027893 0.607095 0 -0.0863163 -0.027893 0.313032 0.420891 -0.17141 -0.0544901 
82 0.00353883 -0.33784 -0.194573 -0.221176 0.205854 0.0322823 -0.496078 0.138386 0 -0.0322823 -0.496078 -0.221176 -0.205854 0.33784 -0.194573 
89 0.00447979 -0.068021 0.502336 -0.0529218 0.0453885 -0.254814 -0.375451 -0.254078 0 0.254814 -0.375451 -0.0529218 -0.0453885 0.068021 0.502336 
77 0.00737437 -0.450462 0.192929 0.0284359 0.0344438 0.348544 -0.077853 0.510535 0 -0.348544 -0.077853 0.0284359 -0.0344438 0.450462 0.192929 
65 0.00551748 0.223475 -0.501449 0.02409 -0.103294 0.201332 -0.28563 0.361217 0 -0.201332 -0.28563 0.02409 0.103294 -0.223475 -0.501449 
74 0.00577981 0.266803 0.116133 0.230073 -0.469274 0.0346537 0.33117 0.250214 0 -0.0346537 0.33117 0.230073 0.469274 -0.266803 0.116133 
102 0.00409574 -0.322007 -0.294614 0.152654 0.410898 0.250018 -0.160161 -0.241715 0 -0.250018 -0.160161 0.152654 -0.410898 0.322007 -0.294614 
37 0.00733906 0.506807 -0.00619818 -0.0291072 0.0477734 -0.235099 0.0542768 0.602929 0 0.235099 0.0542768 -0.0291072 -0.0477734 -0.506807 -0.00619818 
54 0.00428365 0.0720971 -0.331551 -0.515775 0.224419 0.20392 -0.161906 0.0371952 0 -0.20392 -0.161906 -0.515775 -0.224419 -0.0720971 -0.331551 
85 0.00694197 0.461967 0.0292176 -0.0157651 -0.23707 -0.381708 0.263845 0.167141 0 0.381708 0.263845 -0.0157651 0.23707 -0.461967 0.0292176 
90 0.00718055 0.192708 0.0242889 0.065363 -0.605582 -0.129733 -0.113023 -0.351191 0 0.129733 -0.113023 0.065363 0.605582 -0.192708 0.0242889 
75 0.00482747 0.345111 -0.50597 0.0875156 -0.215915 0.166459 -0.0396463 0.287519 0 -0.166459 -0.0396463 0.0875156 0.215915 -0.345111 -0.50597 
76 0.00511275 0.112043 0.169121 -0.574416 0.297162 0.0833047 0.160799 -0.124817 0 -0.0833047 0.160799 -0.574416 -0.297162 -0.112043 0.169121 
108 0.00890279 -0.227969 0.125637 -0.216101 0.0562125 0.469503 -0.375302 -0.205436 0 -0.469503 -0.375302 -0.216101 -0.0562125 0.227969 0.125637 
93 0.00468593 -0.192153 0.0957588 0.117887 0.393983 0.412358 -0.156843 0.424616 0 -0.412358 -0.156843 0.117887 -0.393983 0.192153 0.0957588 
79 0.00592894 -0.556141 -0.119628 0.39752 -0.0350079 0.101507 0.0523261 -0.0906394 0 -0.101507 0.0523261 0.39752 0.0350079 0.556141 -0.119628 
80 0.00598604 -0.33689 -0.222355 0.321165 0.452706 -0.042566 0.122605 -0.155753 0 0.042566 0.122605 0.321165 -0.452706 0.33689 -0.222355 
107 0.00558289 -0.0802049 -0.280746 0.0998606 -0.269508 0.0523962 -0.402754 -0.57825 0 -0.0523962 -0.402754 0.0998606 0.269508 0.0802049 -0.280746 
104 0.00461254 -0.405113 0.0294872 -0.117758 -0.236482 0.132665 -0.492715 -0.0985393 0 -0.132665 -0.492715 -0.117758 0.236482 0.405113 0.0294872 
83 0.00585612 0.587881 -0.0205526 -0.0688198 0.115706 0.238728 0.267747 -0.119754 0 -0.238728 0.267747 -0.0688198 -0.115706 -0.587881 -0.0205526 
84 0.00792587 -0.174508 0.262202 0.261891 -0.23578 0.406584 0.318553 -0.14022 0 -0.406584 0.318553 0.261891 0.23578 0.174508 0.262202 
103 0.00463953 -0.117406 -0.412355 -0.227595 0.0390955 0.234644 -0.0448592 0.64153 0 -0.234644 -0.0448592 -0.227595 -0.0390955 0.117406 -0.412355 
96 0.00749105 0.000418474 0.205421 0.070505 -0.119039 -0.220912 0.574618 -0.345465 0 0.220912 0.574618 0.070505 0.119039 -0.000418474 0.205421 
87 0.00362741 0.159434 -0.199815 -0.00614758 -0.478338 -0.450792 0.0123517 -0.0699011 0 0.450792 0.0123517 -0.00614758 0.478338 -0.159434 -0.199815 
88 0.00647451 -0.474565 0.0100187 -0.372534 0.204166 0.0550733 -0.0682062 0.416022 0 -0.0550733 -0.0682062 -0.372534 -0.204166 0.474565 0.0100187 
100 0.00627583 0.498165 -0.19593 0.104274 0.018754 -0.179054 -0.349522 -0.309814 0 0.179054 -0.349522 0.104274 -0.018754 -0.498165 -0.19593 
95 0.00913487 0.317546 0.404748 0.127717 0.346094 0.146524 0.202355 -0.271421 0 -0.146524 0.202355 0.127717 -0.346094 -0.317546 0.404748 
91 0.00677118 -0.455295 0.250394 0.0084542 0.0491174 0.380303 -0.0274705 -0.405315 0 -0.380303 -0.0274705 0.0084542 -0.0491174 0.455295 0.250394 
92 0.0053199 0.109395 0.277846 0.0382226 0.318378 -0.220263 0.414401 -0.418964 0 0.220263 0.414401 0.0382226 -0.318378 -0.109395 0.277846 
14 0.00609538 0.182878 0.337391 0.135791 -0.262818 -0.482337 0.168591 -0.0909761 0 0.482337 0.168591 0.135791 0.262818 -0.182878 0.337391 
99 0.00410462 0.161792 -0.483561 -0.238979 0.24381 0.0640531 -0.118268 0.459016 0 -0.0640531 -0.118268 -0.238979 -0.24381 -0.161792 -0.483561 
26 0.00405824 0.299291 0.19204 -0.35554 0.12786 0.105101 -0.430195 0.263343 0 -0.105101 -0.430195 -0.35554 -0.12786 -0.299291 0.19204 
21 0.00288457 0.267933 0.24857 -0.156204 -0.0424859 0.425619 -0.000312191 -0.564035 0 -0.425619 -0.000312191 -0.156204 0.0424859 -0.267933 0.24857 
101 0.00450448 0.0786766 -0.226173 0.313558 0.141762 -0.0446477 0.240993 0.726869 0 0.0446477 0.240993 0.313558 -0.141762 -0.0786766 -0.226173 
86 0.00499031 0.232344 0.394309 -0.320686 0.406679 0.00468276 -0.136944 -0.0840619 0 -0.00468276 -0.136944 -0.320686 -0.406679 -0.232344 0.394309 
78 0.00695621 -0.272317 0.482478 0.368723 0.00988962 0.1063 0.165348 -0.191646 0 -0.1063 0.165348 0.368723 -0.00988962 0.272317 0.482478 
29 0.00360723 0.00193027 -0.0822354 -0.59959 0.00779712 0.0878674 -0.0203325 -0.50106 0 -0.0878674 -0.0203325 -0.59959 -0.00779712 -0.00193027 -0.0822354 
105 0.00651268 0.103403 -0.271659 -0.420877 -0.292883 0.262507 -0.0380146 -0.405553 0 -0.262507 -0.0380146 -0.420877 0.292883 -0.103403 -0.271659 
2 0.00502452 -0.120785 -0.353755 -0.000856603 0.477878 0.0843033 0.0703717 0.489573 0 -0.0843033 0.0703717 -0.000856603 -0.477878 0.120785 -0.353755 
25 0.00793381 0.601158 -0.247612 -0.0785726 0.109914 -0.198211 -0.120077 0.103316 0 0.198211 -0.120077 -0.0785726 -0.109914 -0.601158 -0.247612 
17 0.00620944 0.369838 0.112966 0.0471938 -0.197974 0.0261589 0.236171 -0.710742 0 -0.0261589 0.236171 0.0471938 0.197974 -0.369838 0.112966 
97 0.00712246 0.453638 -0.330956 -0.18253 0.0978219 0.00954075 -0.315805 0.289724 0 -0.00954075 -0.315805 -0.18253 -0.0978219 -0.453638 -0.330956 
81 0.00333974 -0.0852494 -0.185911 0.105424 0.0882571 -0.0906194 -0.653845 -0.0841457 0 0.0906194 -0.653845 0.105424 -0.0882571 0.0852494 -0.185911 
