ITEM: TIMESTEP
70000
ITEM: NUMBER OF ATOMS
108
ITEM: BOX BOUNDS pp pp pp
0.0000000000000000e+00 4.8609999999999998e+00
0.0000000000000000e+00 4.8609999999999998e+00
0.0000000000000000e+00 4.8609999999999998e+00
ITEM: ATOMS id c_stein3[1] c_stein3[2] c_stein3[3] c_stein3[4] c_stein3[5] c_stein3[6] c_stein3[7] c_stein3[8] c_stein3[9] c_stein3[10] c_stein3[11] c_stein3[12] c_stein3[13] c_stein3[14] c_stein3[15] 
38 0.0538543 0.380344 -0.531158 0.0836318 -0.0633585 -0.206609 -0.0175084 -0.195998 0 0.206609 -0.0175084 0.0836318 0.0633585 -0.380344 -0.531158 
8 0.0591143 -0.455402 -0.0284062 0.0214735 0.287338 0.149232 -0.226149 -0.520316 0 -0.149232 -0.226149 0.0214735 -0.287338 0.455402 -0.0284062 
4 0.0845503 0.346976 -0.00225073 -0.104211 -0.553927 -0.171339 -0.112326 -0.19967 0 0.171339 -0.112326 -0.104211 0.553927 -0.346976 -0.00225073 
15 0.0664729 -0.334094 -0.237095 -0.0259679 -0.400642 0.285913 0.146713 0.367989 0 -0.285913 0.146713 -0.0259679 0.400642 0.334094 -0.237095 
53 0.0533973 0.156319 0.161074 -0.224562 0.175374 -0.288679 -0.0511243 -0.751647 0 0.288679 -0.0511243 -0.224562 -0.175374 -0.156319 0.161074 
19 0.0842536 0.15242 -0.30045 0.00792922 0.224729 -0.0869683 -0.544898 -0.250819 0 0.0869683 -0.544898 0.00792922 -0.224729 -0.15242 -0.30045 
42 0.0842127 -0.12546 -0.395169 0.0622896 0.0439303 -0.103546 -0.276749 0.685537 0 0.103546 -0.276749 0.0622896 -0.0439303 0.12546 -0.395169 
12 0.0875145 -0.245858 0.0891468 -0.173171 0.164497 0.528262 0.205597 -0.326275 0 -0.528262 0.205597 -0.173171 -0.164497 0.245858 0.0891468 
6 0.0942586 0.0363446 -0.398273 0.0885461 0.439314 -0.0315379 0.329156 -0.244468 0 0.0315379 0.329156 0.0885461 -0.439314 -0.0363446 -0.398273 
21 0.069121 -0.0038107 -0.126564 -0.0229841 0.363158 -0.156096 -0.136833 0.78545 0 0.156096 -0.136833 -0.0229841 -0.363158 0.0038107 -0.126564 
27 0.0447925 -0.0851011 -0.394354 -0.188283 0.0465833 0.325097 -0.182014 -0.567107 0 -0.325097 -0.182014 -0.188283 -0.0465833 0.0851011 -0.394354 
50 0.0932382 0.157587 -0.0433854 -0.260215 0.188023 -0.0111677 -0.0331694 0.859064 0 0.0111677 -0.0331694 -0.260215 -0.188023 -0.157587 -0.0433854 
20 0.0356339 0.503559 -0.244025 -0.157335 0.277508 -0.173738 0.210939 -0.144466 0 0.173738 0.210939 -0.157335 -0.277508 -0.503559 -0.244025 
25 0.077108 0.0534273 -0.393079 -0.02107 0.309653 -0.0309501 -0.408927 -0.395288 0 0.0309501 -0.408927 -0.02107 -0.309653 -0.0534273 -0.393079 
31 0.0573369 -0.00891906 0.177742 0.556742 -0.00488474 -0.139935 -0.372226 -0.0204677 0 0.139935 -0.372226 0.556742 0.00488474 0.00891906 0.177742 
54 0.114249 -0.175547 0.164545 -0.205387 -0.0460364 0.232015 0.355915 0.659241 0 -0.232015 0.355915 -0.205387 0.0460364 0.175547 0.164545 
18 0.10865 0.254346 -0.0559348 0.316558 0.100667 -0.262397 0.502693 0.0238611 0 0.262397 0.502693 0.316558 -0.100667 -0.254346 -0.0559348 
16 0.0847511 -0.368146 -0.0212187 0.195259 -0.152085 0.450649 0.0460593 -0.441714 0 -0.450649 0.0460593 0.195259 0.152085 0.368146 -0.0212187 
33 0.0523886 -0.0453477 0.330423 -0.459032 0.0982508 0.0733793 -0.396877 0.104923 0 -0.0733793 -0.396877 -0.459032 -0.0982508 0.0453477 0.330423 
35 0.0572516 0.486138 -0.0640443 0.203564 -0.0687167 -0.454898 -0.0345257 -0.102796 0 0.454898 -0.0345257 0.203564 0.0687167 -0.486138 -0.0640443 
23 0.0281277 0.275942 0.434406 -0.0501827 -0.172978 -0.429053 0.0461871 0.181591 0 0.429053 0.0461871 -0.0501827 0.172978 -0.275942 0.434406 
24 0.0443205 0.533732 0.0721309 -0.00780562 0.283235 -0.252505 0.0349227 0.359628 0 0.252505 0.0349227 -0.00780562 -0.283235 -0.533732 0.0721309 
22 0.0537603 0.0423114 -0.193339 0.21779 -0.324223 0.375456 -0.328875 -0.34395 0 -0.375456 -0.328875 0.21779 0.324223 -0.0423114 -0.193339 
49 0.0654697 0.21693 0.108927 -0.0561216 0.187524 -0.092019 0.252086 -0.813322 0 0.092019 0.252086 -0.0561216 -0.187524 -0.21693 0.108927 
3 0.0971309 0.156399 0.500995 0.0659127 0.304307 0.0571859 0.0920828 0.481345 0 -0.0571859 0.0920828 0.0659127 -0.304307 -0.156399 0.500995 
37 0.0229454 0.00956662 0.551242 0.296935 -0.100579 -0.307862 -0.0485987 -0.0350319 0 0.307862 -0.0485987 0.296935 0.100579 -0.00956662 0.551242 
41 0.0560617 -0.184696 0.0813924 0.0114725 0.0959866 0.391671 -0.180373 -0.726605 0 -0.391671 -0.180373 0.0114725 -0.0959866 0.184696 0.0813924 
32 0.0616363 -0.153279 -0.0993518 0.16377 -0.23084 -0.152996 0.00622058 0.852151 0 0.152996 0.00622058 0.16377 0.23084 0.153279 -0.0993518 
7 0.104809 0.366583 0.0743797 -0.0897412 0.0165028 -0.0871248 0.265264 0.740004 0 0.0871248 0.265264 -0.0897412 -0.0165028 -0.366583 0.0743797 
5 0.0493304 -0.103349 -0.280713 0.221869 0.00778941 -0.369054 -0.450346 -0.210812 0 0.369054 -0.450346 0.221869 -0.00778941 0.103349 -0.280713 
28 0.0693242 -0.194613 0.0336481 -0.00800622 0.508811 -0.0706933 0.0374943 0.625519 0 0.0706933 0.0374943 -0.00800622 -0.508811 0.194613 0.0336481 
11 0.0829809 -0.113111 -0.0123232 0.0165079 -0.217048 0.163563 -0.0500295 0.905998 0 -0.163563 -0.0500295 0.0165079 0.217048 0.113111 -0.0123232 
70 0.0679253 -0.327163 -0.322949 -0.0420486 0.0873274 0.211077 -0.233399 0.600409 0 -0.211077 -0.233399 -0.0420486 -0.0873274 0.327163 -0.322949 
36 0.0972737 -0.4334 -0.00815367 -0.279868 -0.330534 0.32757 -0.0958001 0.126804 0 -0.32757 -0.0958001 -0.279868 0.330534 0.4334 -0.00815367 
39 0.0760913 -0.213917 0.106687 -0.282929 -0.500796 0.327497 -0.0616951 -0.0436259 0 -0.327497 -0.0616951 -0.282929 0.500796 0.213917 0.106687 
44 0.0803301 -0.401114 0.382143 -0.170279 0.188036 0.168037 0.313792 -0.0635771 0 -0.168037 0.313792 -0.170279 -0.188036 0.401114 0.382143 
43 0.0862944 -0.0634602 0.516015 -0.0109339 0.151642 -0.372668 0.138251 0.31174 0 0.372668 0.138251 -0.0109339 -0.151642 0.0634602 0.516015 
55 0.0891645 0.357577 -0.324759 0.0338991 -0.133332 -0.187489 -0.308714 -0.484329 0 0.187489 -0.308714 0.0338991 0.133332 -0.357577 -0.324759 
78 0.0917144 -0.00515056 -0.214319 0.30353 -0.0756697 -0.116981 -0.177563 -0.788633 0 0.116981 -0.177563 0.30353 0.0756697 0.00515056 -0.214319 
40 0.0972751 0.459382 0.201567 -0.0504618 -0.0604224 -0.239478 0.208405 -0.531712 0 0.239478 0.208405 -0.0504618 0.0604224 -0.459382 0.201567 
48 0.0827413 -0.495474 0.371321 -0.03927 0.0119247 0.315674 0.122289 0.0259768 0 -0.315674 0.122289 -0.03927 -0.0119247 0.495474 0.371321 
46 0.047313 -0.125481 -0.294054 0.337776 -0.365983 -0.00233786 -0.380629 0.0986597 0 0.00233786 -0.380629 0.337776 0.365983 0.125481 -0.294054 
81 0.0584328 0.0495361 -0.0788755 -0.155485 0.475834 -0.412401 0.233861 0.178694 0 0.412401 0.233861 -0.155485 -0.475834 -0.0495361 -0.0788755 
57 0.0386723 -0.472505 -0.0150404 -0.194142 -0.0397842 -0.0893672 0.180211 -0.627338 0 0.0893672 0.180211 -0.194142 0.0397842 0.472505 -0.0150404 
89 0.0579597 -0.301684 0.247084 -0.0330471 0.0537801 -0.26903 0.132915 0.712612 0 0.26903 0.132915 -0.0330471 -0.0537801 0.301684 0.247084 
51 0.047971 -0.127588 -0.253001 -0.141852 0.0500953 -0.0677075 -0.0938502 -0.876 0 0.0677075 -0.0938502 -0.141852 -0.0500953 0.127588 -0.253001 
63 0.115823 0.0243919 -0.179378 -0.0854724 0.559138 -0.33224 0.192028 -0.00767215 0 0.33224 0.192028 -0.0854724 -0.559138 -0.0243919 -0.179378 
86 0.0736361 0.283652 -0.271263 0.306474 -0.13207 -0.269306 -0.241628 0.455366 0 0.269306 -0.241628 0.306474 0.13207 -0.283652 -0.271263 
52 0.0809883 0.145254 -0.552484 0.114637 0.0126976 -0.208397 -0.219391 0.370939 0 0.208397 -0.219391 0.114637 -0.0126976 -0.145254 -0.552484 
56 0.0420083 -0.128428 -0.295169 0.468347 -0.314188 -0.0312529 -0.248146 -0.177572 0 0.0312529 -0.248146 0.468347 0.314188 0.128428 -0.295169 
60 0.0655386 0.185091 -0.36014 0.000884419 -0.491018 0.215599 -0.219992 -0.0110775 0 -0.215599 -0.219992 0.000884419 0.491018 -0.185091 -0.36014 
90 0.0752861 -0.447874 0.253788 -0.059137 -0.252226 0.137752 0.358763 -0.200993 0 -0.137752 0.358763 -0.059137 0.252226 0.447874 0.253788 
65 0.068606 0.0904627 -0.4191 0.180589 0.365547 0.0140082 -0.350993 0.230402 0 -0.0140082 -0.350993 0.180589 -0.365547 -0.0904627 -0.4191 
61 0.0792718 0.154525 0.154902 0.168625 0.128721 -0.213094 0.123993 -0.832275 0 0.213094 0.123993 0.168625 -0.128721 -0.154525 0.154902 
59 0.0676205 -0.0972057 0.479827 -0.181147 -0.137312 0.152488 0.36046 -0.333061 0 -0.152488 0.36046 -0.181147 0.137312 0.0972057 0.479827 
58 0.0324928 0.207174 0.25788 -0.507845 0.196171 0.0173202 -0.274915 0.191355 0 -0.0173202 -0.274915 -0.507845 -0.196171 -0.207174 0.25788 
105 0.0879845 0.172449 -0.308638 -0.0618837 0.0174781 0.268079 -0.19868 0.720457 0 -0.268079 -0.19868 -0.0618837 -0.0174781 -0.172449 -0.308638 
71 0.123232 0.0314833 -0.216366 -0.0958807 0.12535 -0.13964 -0.239405 -0.837227 0 0.13964 -0.239405 -0.0958807 -0.12535 -0.0314833 -0.216366 
93 0.0886224 0.108013 0.521488 -0.0871556 0.146836 0.122498 0.33142 -0.353219 0 -0.122498 0.33142 -0.0871556 -0.146836 -0.108013 0.521488 
101 0.0987363 -0.00984498 0.467879 -0.406298 -0.0524397 0.0432818 0.292045 0.22804 0 -0.0432818 0.292045 -0.406298 0.0524397 0.00984498 0.467879 
64 0.104893 0.316086 0.019593 0.186412 0.518277 -0.28495 -0.0922172 0.115283 0 0.28495 -0.0922172 0.186412 -0.518277 -0.316086 0.019593 
62 0.0563884 0.154932 0.272014 0.351692 0.00649475 -0.479592 -0.214304 0.0684207 0 0.479592 -0.214304 0.351692 -0.00649475 -0.154932 0.272014 
68 0.0666506 -0.0761418 -0.280196 0.0715146 -0.0823208 0.0278489 -0.305737 -0.786831 0 -0.0278489 -0.305737 0.0715146 0.0823208 0.0761418 -0.280196 
102 0.0876482 -0.388607 -0.274884 0.0367326 0.143917 0.0347588 0.470013 0.241834 0 -0.0347588 0.470013 0.0367326 -0.143917 0.388607 -0.274884 
66 0.124145 0.470696 0.0789825 -0.146524 -0.155568 -0.313861 0.157009 -0.454701 0 0.313861 0.157009 -0.146524 0.155568 -0.470696 0.0789825 
67 0.113766 -0.181634 0.22394 0.332305 -0.386529 0.338532 -0.143956 -0.208334 0 -0.338532 -0.143956 0.332305 0.386529 0.181634 0.22394 
72 0.0659171 -0.355002 -0.362863 0.0458877 -0.118288 0.144701 0.0748791 -0.631919 0 -0.144701 0.0748791 0.0458877 0.118288 0.355002 -0.362863 
47 0.074534 0.442284 -0.0402853 0.451611 0.210913 -0.196765 0.0473677 0.163497 0 0.196765 0.0473677 0.451611 -0.210913 -0.442284 -0.0402853 
69 0.0955846 -0.301025 0.104172 0.09403 -0.417261 0.238639 0.0799445 -0.551804 0 -0.238639 0.0799445 0.09403 0.417261 0.301025 0.104172 
45 0.0580123 -0.549978 -0.158765 -0.0895166 0.0919733 0.376701 -0.11781 -0.011176 0 -0.376701 -0.11781 -0.0895166 -0.0919733 0.549978 -0.158765 
75 0.0685135 0.0486182 0.25403 0.229928 0.274602 0.0115831 0.550689 -0.0536531 0 -0.0115831 0.550689 0.229928 -0.274602 -0.0486182 0.25403 
77 0.0429029 0.182831 0.0476067 0.159571 -0.0755351 0.0548335 -0.641971 -0.189762 0 -0.0548335 -0.641971 0.159571 0.0755351 -0.182831 0.0476067 
2 0.0878723 0.31206 0.158458 0.238179 0.25046 0.124701 0.488497 0.0879826 0 -0.124701 0.488497 0.238179 -0.25046 -0.31206 0.158458 
74 0.0647158 -0.307518 0.107342 -0.309197 -0.257692 0.220477 -0.0451019 -0.602094 0 -0.220477 -0.0451019 -0.309197 0.257692 0.307518 0.107342 
80 0.0838192 0.25638 -0.017989 0.152759 -0.590452 0.179998 -0.0760915 0.218121 0 -0.179998 -0.0760915 0.152759 0.590452 -0.25638 -0.017989 
84 0.106711 -0.378307 0.320852 0.10525 0.438975 0.0811463 0.0392224 0.289959 0 -0.0811463 0.0392224 0.10525 -0.438975 0.378307 0.320852 
76 0.0587062 0.0822077 0.0840195 0.109003 0.0456728 -0.097701 -0.101234 0.951232 0 0.097701 -0.101234 0.109003 -0.0456728 -0.0822077 0.0840195 
83 0.102416 -0.455886 -0.134268 -0.258794 -0.31216 0.128884 -0.0639581 -0.421948 0 -0.128884 -0.0639581 -0.258794 0.31216 0.455886 -0.134268 
82 0.0992396 0.162166 0.0243175 -0.0363595 -0.0778393 -0.301547 0.204137 -0.816245 0 0.301547 0.204137 -0.0363595 0.0778393 -0.162166 0.0243175 
95 0.0841615 -0.130674 -0.137532 0.161772 0.447586 -0.17715 -0.245172 0.540398 0 0.17715 -0.245172 0.161772 -0.447586 0.130674 -0.137532 
10 0.105566 0.128427 -0.423204 -0.0498901 0.00238512 -0.0129545 -0.423829 0.494188 0 0.0129545 -0.423829 -0.0498901 -0.00238512 -0.128427 -0.423204 
73 0.0870994 -0.303457 0.392182 -0.0766254 -0.0318894 0.358956 0.316526 0.190684 0 -0.358956 0.316526 -0.0766254 0.0318894 0.303457 0.392182 
85 0.0737363 0.0481765 -0.143695 -0.110255 -0.37801 0.0519428 -0.0765671 0.791736 0 -0.0519428 -0.0765671 -0.110255 0.37801 -0.0481765 -0.143695 
87 0.0786044 0.101507 0.221352 0.0916287 -0.476642 0.0446038 -0.0132171 0.637106 0 -0.0446038 -0.0132171 0.0916287 0.476642 -0.101507 0.221352 
99 0.0541074 -0.259739 -0.362232 -0.311879 0.0502211 -0.0465205 -0.282167 0.489388 0 0.0465205 -0.282167 -0.311879 -0.0502211 0.259739 -0.362232 
14 0.109243 -0.102539 -0.311793 -0.0459646 -0.0246948 0.22309 -0.198278 -0.775197 0 -0.22309 -0.198278 -0.0459646 0.0246948 0.102539 -0.311793 
97 0.0544685 0.174755 -0.122494 -0.157403 0.19394 -0.316315 -0.233715 0.689041 0 0.316315 -0.233715 -0.157403 -0.19394 -0.174755 -0.122494 
92 0.0503814 0.357417 0.252542 -0.339695 -0.0956063 -0.352538 0.233741 -0.100245 0 0.352538 0.233741 -0.339695 0.0956063 -0.357417 0.252542 
91 0.0981333 0.297305 -0.0875019 -0.297867 0.271153 0.074051 -0.282543 0.559267 0 -0.074051 -0.282543 -0.297867 -0.271153 -0.297305 -0.0875019 
17 0.0730346 -0.178359 -0.450353 0.0289764 0.0198145 0.295646 -0.143239 0.558953 0 -0.295646 -0.143239 0.0289764 -0.0198145 0.178359 -0.450353 
96 0.0959846 -0.35822 -0.305857 0.151646 -0.140936 0.118764 -0.222306 -0.586082 0 -0.118764 -0.222306 0.151646 0.140936 0.35822 -0.305857 
13 0.0821261 -0.114809 0.41629 0.0232328 -0.325247 -0.14146 0.299465 -0.441603 0 0.14146 0.299465 0.0232328 0.325247 0.114809 0.41629 
88 0.112165 -0.155467 0.426066 0.0471693 0.363797 0.0754901 0.343457 0.268563 0 -0.0754901 0.343457 0.0471693 -0.363797 0.155467 0.426066 
94 0.0592415 0.0719303 -0.476256 0.239148 0.311017 0.208229 -0.264236 0.0425111 0 -0.208229 -0.264236 0.239148 -0.311017 -0.0719303 -0.476256 
107 0.0763323 -0.107937 0.010273 0.166537 0.00696585 0.354389 0.399292 0.592344 0 -0.354389 0.399292 0.166537 -0.00696585 0.107937 0.010273 
98 0.101224 0.151907 0.500106 0.316178 0.0498599 0.0597054 -0.0827721 0.477385 0 -0.0597054 -0.0827721 0.316178 -0.0498599 -0.151907 0.500106 
26 0.0581507 0.385496 -0.2269 -0.277572 -0.301004 0.256095 0.107778 -0.331841 0 -0.256095 0.107778 -0.277572 0.301004 -0.385496 -0.2269 
30 0.0839277 0.1272 0.127391 0.184719 -0.323598 -0.427926 0.315462 0.303702 0 0.427926 0.315462 0.184719 0.323598 -0.1272 0.127391 
103 0.0834255 0.232754 0.242974 -0.534423 -0.0319225 0.00192096 -0.310677 -0.0853023 0 -0.00192096 -0.310677 -0.534423 0.0319225 -0.232754 0.242974 
79 0.0915386 0.339295 0.15077 0.286719 0.0574318 -0.339402 0.0413601 -0.565219 0 0.339402 0.0413601 0.286719 -0.0574318 -0.339295 0.15077 
104 0.0698594 0.52956 -0.0977502 -0.187611 0.204505 -0.18843 -0.299649 0.124062 0 0.18843 -0.299649 -0.187611 -0.204505 -0.52956 -0.0977502 
29 0.0645468 -0.242826 0.320571 0.140151 -0.198684 0.475625 0.18399 0.195351 0 -0.475625 0.18399 0.140151 0.198684 0.242826 0.320571 
9 0.0693863 -0.435648 -0.0183718 -0.173994 -0.268962 0.418542 0.13775 -0.161899 0 -0.418542 0.13775 -0.173994 0.268962 0.435648 -0.0183718 
100 0.110715 -0.073976 -0.347491 -0.213849 -0.532476 0.0274208 -0.1358 -0.225041 0 -0.0274208 -0.1358 -0.213849 0.532476 0.073976 -0.347491 
1 0.060401 -0.335391 0.0376318 -0.254419 -0.0176407 -0.157557 0.13839 -0.74442 0 0.157557 0.13839 -0.254419 0.0176407 0.335391 0.0376318 
106 0.10509 0.319109 0.00717182 -0.0909947 0.022143 -0.325522 -0.0761 -0.745107 0 0.325522 -0.0761 -0.0909947 -0.022143 -0.319109 0.00717182 
108 0.050304 -0.232372 0.102655 0.131453 0.0822744 -0.1711 -0.401365 0.664901 0 0.1711 -0.401365 0.131453 -0.0822744 0.232372 0.102655 
34 0.111279 0.0153327 0.489503 0.047007 0.0783597 0.0329492 0.392147 0.440312 0 -0.0329492 0.392147 0.047007 -0.0783597 -0.0153327 0.489503 
