ITEM: TIMESTEP
80000
ITEM: NUMBER OF ATOMS
108
ITEM: BOX BOUNDS pp pp pp
0.0000000000000000e+00 4.8609999999999998e+00
0.0000000000000000e+00 4.8609999999999998e+00
0.0000000000000000e+00 4.8609999999999998e+00
ITEM: ATOMS id c_stein3[1] c_stein3[2] c_stein3[3] c_stein3[4] c_stein3[5] c_stein3[6] c_stein3[7] c_stein3[8] c_stein3[9] c_stein3[10] c_stein3[11] c_stein3[12] c_stein3[13] c_stein3[14] c_stein3[15] 
3 0.057132 -0.354983 0.33769 -0.208383 -0.07159 -0.0875194 0.305804 -0.469527 0 0.0875194 0.305804 -0.208383 0.07159 0.354983 0.33769 
8 0.0754191 0.34755 0.326372 0.247131 -0.137245 -0.0861611 0.118204 -0.585464 0 0.0861611 0.118204 0.247131 0.137245 -0.34755 0.326372 
4 0.0640541 0.193182 -0.0079489 0.159008 -0.0295132 0.130036 -0.389253 -0.732169 0 -0.130036 -0.389253 0.159008 0.0295132 -0.193182 -0.0079489 
41 0.0482894 -0.654341 0.0174047 0.0606176 -0.0709015 -0.118893 0.141072 0.239986 0 0.118893 0.141072 0.0606176 0.0709015 0.654341 0.0174047 
6 0.0656534 -0.175892 -0.38095 -0.216984 -0.315156 0.294528 -0.293183 -0.0982908 0 -0.294528 -0.293183 -0.216984 0.315156 0.175892 -0.38095 
42 0.063016 0.28318 -0.411508 0.145477 0.221404 -0.274105 -0.20389 0.356601 0 0.274105 -0.20389 0.145477 -0.221404 -0.28318 -0.411508 
19 0.0568852 0.0137963 -0.481718 0.102082 -0.419313 -0.203947 -0.0659053 -0.266742 0 0.203947 -0.0659053 0.102082 0.419313 -0.0137963 -0.481718 
5 0.0923717 -0.0596275 -0.00351728 0.300802 -0.115902 -0.371947 0.292437 0.58078 0 0.371947 0.292437 0.300802 0.115902 0.0596275 -0.00351728 
7 0.100515 0.0697481 0.303862 0.0968441 -0.0475736 -0.0327621 0.294101 0.779221 0 0.0327621 0.294101 0.0968441 0.0475736 -0.0697481 0.303862 
9 0.0417677 0.0699474 0.270438 -0.222361 0.475525 0.248182 -0.030687 -0.40955 0 -0.248182 -0.030687 -0.222361 -0.475525 -0.0699474 0.270438 
12 0.0704471 -0.334917 0.372988 0.0893251 0.154289 0.326315 0.321782 0.117487 0 -0.326315 0.321782 0.0893251 -0.154289 0.334917 0.372988 
13 0.0694652 -0.566088 0.0409198 0.067774 0.144434 0.234494 -0.208555 0.328428 0 -0.234494 -0.208555 0.067774 -0.144434 0.566088 0.0409198 
10 0.0690116 0.197965 -0.39355 -0.141744 0.215496 -0.201108 -0.376833 0.337492 0 0.201108 -0.376833 -0.141744 -0.215496 -0.197965 -0.39355 
15 0.0553515 0.504739 0.148933 -0.0022418 0.324524 -0.314374 -0.0587402 -0.17581 0 0.314374 -0.0587402 -0.0022418 -0.324524 -0.504739 0.148933 
16 0.0740419 0.525729 0.0998165 -0.150263 -0.063066 -0.37596 0.213873 0.00231863 0 0.37596 0.213873 -0.150263 0.063066 -0.525729 0.0998165 
20 0.108039 -0.296421 -0.350772 -0.0905255 0.0334292 0.143921 -0.197605 -0.663355 0 -0.143921 -0.197605 -0.0905255 -0.0334292 0.296421 -0.350772 
53 0.0767735 -0.258605 -0.0994298 -0.097417 0.403672 -0.283192 0.0284957 0.582728 0 0.283192 0.0284957 -0.097417 -0.403672 0.258605 -0.0994298 
18 0.0208709 0.242065 0.246414 0.322894 -0.0996549 0.047725 -0.477985 -0.267379 0 -0.047725 -0.477985 0.322894 0.0996549 -0.242065 0.246414 
57 0.0564093 -0.112025 0.118955 0.163421 -0.656821 0.0294428 0.0864949 -0.116891 0 -0.0294428 0.0864949 0.163421 0.656821 0.112025 0.118955 
23 0.073941 -0.457162 -0.221142 -0.0243112 -0.0743823 0.480493 0.0424148 0.0812687 0 -0.480493 0.0424148 -0.0243112 0.0743823 0.457162 -0.221142 
69 0.0404783 -0.34069 0.176795 -0.167236 0.47451 -0.0695792 0.148919 -0.380863 0 0.0695792 0.148919 -0.167236 -0.47451 0.34069 0.176795 
24 0.0762252 0.0835745 -0.572576 0.0357243 0.0782498 -0.0730839 -0.31893 -0.31848 0 0.0730839 -0.31893 0.0357243 -0.0782498 -0.0835745 -0.572576 
22 0.0532347 0.312276 -0.0451282 -0.143652 0.0350671 -0.267874 0.396309 0.547292 0 0.267874 0.396309 -0.143652 -0.0350671 -0.312276 -0.0451282 
27 0.0721775 -0.13637 -0.142169 0.315395 -0.410463 0.0686177 -0.155565 0.573287 0 -0.0686177 -0.155565 0.315395 0.410463 0.13637 -0.142169 
32 0.040705 -0.0297273 -0.466284 0.169149 -0.423584 -0.210021 0.0168265 0.241944 0 0.210021 0.0168265 0.169149 0.423584 0.0297273 -0.466284 
45 0.0334995 0.38823 -0.0656345 -0.128901 -0.290162 0.144171 -0.446247 0.220177 0 -0.144171 -0.446247 -0.128901 0.290162 -0.38823 -0.0656345 
33 0.0557237 -0.186342 0.220149 0.030025 0.374525 0.0915276 -0.321763 0.572244 0 -0.0915276 -0.321763 0.030025 -0.374525 0.186342 0.220149 
36 0.065217 -0.144731 0.282457 -0.125208 0.129165 0.108214 -0.0415569 -0.8408 0 -0.108214 -0.0415569 -0.125208 -0.129165 0.144731 0.282457 
31 0.0692748 0.22286 0.0239603 -0.252542 0.297223 -0.261111 -0.0800159 0.667921 0 0.261111 -0.0800159 -0.252542 -0.297223 -0.22286 0.0239603 
66 0.0410604 0.302591 -0.281575 0.0975754 0.46372 -0.229541 -0.111429 -0.281036 0 0.229541 -0.111429 0.0975754 -0.46372 -0.302591 -0.281575 
30 0.0367795 -0.216759 0.245748 0.137743 -0.139505 -0.0483941 -0.161328 -0.807242 0 0.0483941 -0.161328 0.137743 0.139505 0.216759 0.245748 
1 0.0324423 0.205617 0.278987 -0.328046 0.297755 -0.297063 0.262181 0.230784 0 0.297063 0.262181 -0.328046 -0.297755 -0.205617 0.278987 
11 0.0580093 0.474748 0.245942 0.016525 0.113295 -0.0277082 0.212082 0.557264 0 0.0277082 0.212082 0.016525 -0.113295 -0.474748 0.245942 
34 0.0522523 0.0474607 0.517666 -0.00621037 0.0621699 0.340586 0.319303 -0.125795 0 -0.340586 0.319303 -0.00621037 -0.0621699 -0.0474607 0.517666 
35 0.0503339 -0.516351 0.0432283 -0.07859 0.402145 0.193673 -0.0793027 -0.199083 0 -0.193673 -0.0793027 -0.07859 -0.402145 0.516351 0.0432283 
28 0.0717978 -0.0908922 0.0836182 -0.0606195 0.167948 -0.000840439 0.14107 -0.930552 0 0.000840439 0.14107 -0.0606195 -0.167948 0.0908922 0.0836182 
39 0.0830704 0.296361 0.0201501 0.0996028 -0.338736 -0.463153 0.212969 -0.233389 0 0.463153 0.212969 0.0996028 0.338736 -0.296361 0.0201501 
49 0.0579548 -0.0922168 0.167407 -0.294853 0.255664 0.35016 -0.136967 -0.582747 0 -0.35016 -0.136967 -0.294853 -0.255664 0.0922168 0.167407 
38 0.0659771 -0.202526 0.0813479 -0.354597 -0.538165 -0.055694 -0.0774079 -0.236269 0 0.055694 -0.0774079 -0.354597 0.538165 0.202526 0.0813479 
74 0.0605638 -0.221113 0.127767 0.209984 -0.198534 0.181555 0.0205099 0.797362 0 -0.181555 0.0205099 0.209984 0.198534 0.221113 0.127767 
44 0.0881314 -0.348152 -0.261627 0.0351025 -0.154549 0.459594 -0.155839 -0.315313 0 -0.459594 -0.155839 0.0351025 0.154549 0.348152 -0.261627 
48 0.0564008 -0.0921745 0.213152 0.152435 0.141374 -0.0824734 -0.0158016 -0.889714 0 0.0824734 -0.0158016 0.152435 -0.141374 0.0921745 0.213152 
40 0.0752381 0.173342 -0.00907106 0.0217763 0.173288 -0.185907 -0.0555669 -0.896346 0 0.185907 -0.0555669 0.0217763 -0.173288 -0.173342 -0.00907106 
46 0.0703004 0.235725 -0.177147 -0.174159 -0.124295 -0.252518 0.190243 -0.731183 0 0.252518 0.190243 -0.174159 0.124295 -0.235725 -0.177147 
82 0.104346 0.241737 -0.335316 -0.00387098 0.108491 -0.115328 -0.38551 0.557534 0 0.115328 -0.38551 -0.00387098 -0.108491 -0.241737 -0.335316 
59 0.0226693 -0.35475 -0.120107 0.4742 -0.148572 0.0953678 -0.207671 -0.348038 0 -0.0953678 -0.207671 0.4742 0.148572 0.35475 -0.120107 
37 0.0862767 0.401299 -0.0624622 0.059838 -0.0444655 -0.127509 -0.233804 0.719134 0 0.127509 -0.233804 0.059838 0.0444655 -0.401299 -0.0624622 
51 0.098615 0.0905737 0.455278 -0.00198845 0.199732 0.113789 0.188183 0.626516 0 -0.113789 0.188183 -0.00198845 -0.199732 -0.0905737 0.455278 
50 0.0581067 -0.28599 -0.341871 0.253076 0.329315 0.230472 -0.210417 0.250781 0 -0.230472 -0.210417 0.253076 -0.329315 0.28599 -0.341871 
52 0.0400319 0.204175 0.0788541 -0.417797 0.131411 -0.415031 0.0910345 -0.399333 0 0.415031 0.0910345 -0.417797 -0.131411 -0.204175 0.0788541 
61 0.0684597 0.291182 0.203163 -0.0473863 -0.12458 -0.252466 0.527672 -0.167298 0 0.252466 0.527672 -0.0473863 0.12458 -0.291182 0.203163 
63 0.0770377 0.139469 -0.425585 -0.224621 0.264725 -0.202524 -0.296248 0.316585 0 0.202524 -0.296248 -0.224621 -0.264725 -0.139469 -0.425585 
56 0.0390398 -0.483194 -0.126751 0.143523 0.317616 0.260354 0.165339 -0.26022 0 -0.260354 0.165339 0.143523 -0.317616 0.483194 -0.126751 
55 0.097205 0.46296 0.134 -0.111142 0.177661 -0.320985 0.0415331 -0.487933 0 0.320985 0.0415331 -0.111142 -0.177661 -0.46296 0.134 
67 0.0251354 -0.183424 -0.0521195 0.62369 0.0292179 -0.194094 0.17963 -0.0878261 0 0.194094 0.17963 0.62369 -0.0292179 0.183424 -0.0521195 
89 0.0639836 -0.0465906 -0.0140223 -0.0306654 -0.0636773 0.471323 -0.0702237 0.728781 0 -0.471323 -0.0702237 -0.0306654 0.0636773 0.0465906 -0.0140223 
60 0.0806149 -0.12588 -0.4178 0.13128 -0.282551 -0.00674865 -0.0820725 -0.641478 0 0.00674865 -0.0820725 0.13128 0.282551 0.12588 -0.4178 
54 0.0398744 0.178575 0.591378 -0.173447 -0.0605821 -0.0707888 0.138841 -0.347395 0 0.0707888 0.138841 -0.173447 0.0605821 -0.178575 0.591378 
58 0.0604496 0.521016 0.197005 0.0238495 -0.192429 -0.297168 -0.243913 -0.0930755 0 0.297168 -0.243913 0.0238495 0.192429 -0.521016 0.197005 
94 0.080042 0.0785739 0.15689 0.136948 -0.197993 -0.362297 0.0276331 -0.747305 0 0.362297 0.0276331 0.136948 0.197993 -0.0785739 0.15689 
64 0.080749 -0.0883869 -0.370357 -0.115241 -0.247367 -0.12912 -0.0682892 0.720024 0 0.12912 -0.0682892 -0.115241 0.247367 0.0883869 -0.370357 
65 0.0459019 -0.063295 0.412623 -0.162994 -0.270714 0.446938 0.153103 0.0733302 0 -0.446938 0.153103 -0.162994 0.270714 0.063295 0.412623 
62 0.0882234 -0.235894 -0.110909 0.324921 0.111668 0.511371 -0.0507678 0.316014 0 -0.511371 -0.0507678 0.324921 -0.111668 0.235894 -0.110909 
98 0.0316278 0.245089 -0.38279 -0.0329735 0.00086839 -0.500891 0.197202 -0.0712129 0 0.500891 0.197202 -0.0329735 -0.00086839 -0.245089 -0.38279 
43 0.0638469 -0.51186 -0.0826779 -0.0646725 0.0786682 0.29975 -0.0209047 -0.510892 0 -0.29975 -0.0209047 -0.0646725 -0.0786682 0.51186 -0.0826779 
72 0.0685426 0.163433 0.117907 0.0805039 -0.121426 -0.10889 -0.0412234 0.921527 0 0.10889 -0.0412234 0.0805039 0.121426 -0.163433 0.117907 
68 0.0778238 -0.0542784 0.313542 -0.39233 0.264782 0.125931 -0.137563 -0.529021 0 -0.125931 -0.137563 -0.39233 -0.264782 0.0542784 0.313542 
77 0.0681085 0.351548 0.0952731 -0.476245 0.0952714 -0.283325 -0.207759 -0.126608 0 0.283325 -0.207759 -0.476245 -0.0952714 -0.351548 0.0952731 
102 0.0651711 0.614909 0.172384 0.0948914 -0.175853 -0.144629 0.159598 -0.10819 0 0.144629 0.159598 0.0948914 0.175853 -0.614909 0.172384 
73 0.0813469 0.00893124 0.149011 -0.0435688 -0.114588 -0.469514 0.318389 -0.530796 0 0.469514 0.318389 -0.0435688 0.114588 -0.00893124 0.149011 
70 0.0754927 0.0806658 0.018274 0.0116574 0.140801 -0.142539 -0.0370843 -0.950269 0 0.142539 -0.0370843 0.0116574 -0.140801 -0.0806658 0.018274 
71 0.0737642 -0.0652435 0.0385242 0.0854663 -0.665244 0.11091 0.133994 0.168226 0 -0.11091 0.133994 0.0854663 0.665244 0.0652435 0.0385242 
47 0.0484199 0.337088 0.265128 -0.188315 0.388765 -0.112277 0.177901 -0.412851 0 0.112277 0.177901 -0.188315 -0.388765 -0.337088 0.265128 
106 0.131846 -0.358002 0.245647 0.103051 -0.0721179 0.413747 0.223637 0.385931 0 -0.413747 0.223637 0.103051 0.0721179 0.358002 0.245647 
87 0.119869 -0.500637 -0.056731 0.12753 -0.15811 0.302319 0.0939431 -0.457515 0 -0.302319 0.0939431 0.12753 0.15811 0.500637 -0.056731 
80 0.0465964 -0.145252 -0.550555 -0.0305255 -0.00244361 0.0930855 -0.35444 -0.284816 0 -0.0930855 -0.35444 -0.0305255 0.00244361 0.145252 -0.550555 
2 0.053051 -0.0478974 -0.300036 -0.0466717 0.362758 -0.116576 0.0919586 0.709741 0 0.116576 0.0919586 -0.0466717 -0.362758 0.0478974 -0.300036 
17 0.072698 0.516137 0.0649861 -0.0610027 -0.147884 -0.0500287 0.169649 -0.587375 0 0.0500287 0.169649 -0.0610027 0.147884 -0.516137 0.0649861 
78 0.069526 0.171704 -0.172228 -0.150947 0.350114 0.0919585 -0.0738402 0.750442 0 -0.0919585 -0.0738402 -0.150947 -0.350114 -0.171704 -0.172228 
79 0.0889831 -0.57728 0.00701571 -0.037683 0.099883 -0.00804535 0.0876887 -0.543228 0 0.00804535 0.0876887 -0.037683 -0.099883 0.57728 0.00701571 
76 0.0758585 0.12829 -0.181741 0.112807 -0.014111 0.0781407 -0.342 0.793117 0 -0.0781407 -0.342 0.112807 0.014111 -0.12829 -0.181741 
84 0.0433728 -0.49093 -0.175682 -0.0690901 -0.00952758 0.451972 0.0171212 -0.193323 0 -0.451972 0.0171212 -0.0690901 0.00952758 0.49093 -0.175682 
95 0.0798612 0.478786 0.130803 0.00828817 0.281108 -0.369492 -0.00500744 -0.275735 0 0.369492 -0.00500744 0.00828817 -0.281108 -0.478786 0.130803 
83 0.0314746 0.570678 -0.340452 -0.0404023 -0.154459 -0.106195 0.0948132 -0.159141 0 0.106195 0.0948132 -0.0404023 0.154459 -0.570678 -0.340452 
21 0.0472547 0.479407 -0.178525 0.0376581 -0.358478 -0.220378 0.00308708 0.345825 0 0.220378 0.00308708 0.0376581 0.358478 -0.479407 -0.178525 
85 0.0397923 0.163061 0.0368889 0.3542 -0.256068 0.112964 0.322239 0.573451 0 -0.112964 0.322239 0.3542 0.256068 -0.163061 0.0368889 
86 0.0688456 -0.00211565 -0.0659724 0.170654 0.508419 0.286489 -0.307883 -0.249652 0 -0.286489 -0.307883 0.170654 -0.508419 0.00211565 -0.0659724 
92 0.0737861 0.0881208 -0.212179 0.000543058 0.00431091 -0.113918 -0.0390839 0.930259 0 0.113918 -0.0390839 0.000543058 -0.00431091 -0.0881208 -0.212179 
14 0.0688815 -0.41616 0.0869306 -0.0398246 -0.251742 0.398203 -0.131346 -0.396173 0 -0.398203 -0.131346 -0.0398246 0.251742 0.41616 0.0869306 
93 0.0689985 -0.144897 -0.101845 -0.216161 0.254396 0.078135 0.146483 0.811945 0 -0.078135 0.146483 -0.216161 -0.254396 0.144897 -0.101845 
90 0.0523989 0.0425198 -0.252609 -0.159192 -0.246298 0.126385 -0.109524 0.800509 0 -0.126385 -0.109524 -0.159192 0.246298 -0.0425198 -0.252609 
91 0.0388483 0.113119 -0.0941581 -0.279286 -0.586644 -0.0326105 0.0166313 0.331199 0 0.0326105 0.0166313 -0.279286 0.586644 -0.113119 -0.0941581 
101 0.0795821 0.0340248 0.218359 -0.12532 -0.0881908 -0.00916736 0.110719 -0.911412 0 0.00916736 0.110719 -0.12532 0.0881908 -0.0340248 0.218359 
103 0.0504543 0.0153636 0.072812 0.110007 -0.0800224 0.256193 0.137345 -0.884826 0 -0.256193 0.137345 0.110007 0.0800224 -0.0153636 0.072812 
107 0.0459577 0.20545 -0.26498 0.132206 -0.119958 -0.41104 0.0794125 0.600744 0 0.41104 0.0794125 0.132206 0.119958 -0.20545 -0.26498 
105 0.0811015 0.418692 0.0900928 -0.0908103 -0.120386 -0.444186 0.0184278 -0.438633 0 0.444186 0.0184278 -0.0908103 0.120386 -0.418692 0.0900928 
88 0.0666367 -0.463138 -0.0421312 0.136582 0.116824 0.344173 0.0362328 0.513142 0 -0.344173 0.0362328 0.136582 -0.116824 0.463138 -0.0421312 
96 0.0878033 0.39641 0.377123 0.0158853 -0.0579723 -0.298153 0.222903 0.341889 0 0.298153 0.222903 0.0158853 0.0579723 -0.39641 0.377123 
26 0.052881 -0.0452374 0.336171 0.192079 -0.122375 0.573015 -0.0337402 0.0847134 0 -0.573015 -0.0337402 0.192079 0.122375 0.0452374 0.336171 
25 0.0707609 0.372664 -0.348443 -0.167873 -0.428813 -0.132011 -0.00325302 -0.142893 0 0.132011 -0.00325302 -0.167873 0.428813 -0.372664 -0.348443 
29 0.0566032 0.345312 0.399974 0.152959 0.163616 -0.0979542 0.297693 0.38052 0 0.0979542 0.297693 0.152959 -0.163616 -0.345312 0.399974 
75 0.0376379 -0.0227614 0.0632837 -0.231468 -0.0159963 0.386503 -0.182979 0.719414 0 -0.386503 -0.182979 -0.231468 0.0159963 0.0227614 0.0632837 
99 0.0838809 -0.592546 0.0485639 0.193779 0.217862 0.166098 -0.122456 0.194592 0 -0.166098 -0.122456 0.193779 -0.217862 0.592546 0.0485639 
104 0.0849228 -0.158563 0.258449 -0.000333721 0.0200653 0.327352 0.410198 0.514271 0 -0.327352 0.410198 -0.000333721 -0.0200653 0.158563 0.258449 
108 0.0868317 0.122445 -0.456396 -0.0585092 0.141084 -0.313954 -0.231858 0.44957 0 0.313954 -0.231858 -0.0585092 -0.141084 -0.122445 -0.456396 
81 0.0600711 -0.507123 -0.286837 0.178588 -0.121906 0.321179 -0.0904989 -0.0699909 0 -0.321179 -0.0904989 0.178588 0.121906 0.507123 -0.286837 
100 0.0509778 -0.366062 0.542799 -0.141813 -0.22085 0.0455747 -0.0167123 -0.015856 0 -0.0455747 -0.0167123 -0.141813 0.22085 0.366062 0.542799 
97 0.0690692 -0.175691 -0.0932523 0.215105 0.362051 0.170265 -0.387013 -0.456764 0 -0.170265 -0.387013 0.215105 -0.362051 0.175691 -0.0932523 
