ITEM: TIMESTEP
2
ITEM: NUMBER OF ATOMS
2694
ITEM: BOX BOUNDS pp pp pp
0.0000000000000000e+00 1.5000000000000000e+02
0.0000000000000000e+00 1.5000000000000000e+02
1.4377095709207310e-01 3.3708622904283447e+02
ITEM: ATOMS id type element x y z xs ys zs xu yu zu xsu ysu zsu ix iy iz q vx vy vz 
3290 3 C 74.1885 73.0967 3.50377 0.49459 0.487312 0.00997204 74.1885 73.0967 3.50377 0.49459 0.487312 0.00997204 0 0 0 0.5897 0.00997159 0.00724188 -0.00711838 
3646 4 C 72.7471 72.9012 0.568663 0.484981 0.486008 0.00126102 72.7471 72.9012 0.568663 0.484981 0.486008 0.00126102 0 0 0 -1.1794 -0.000441021 0.000523255 0.00253714 
3647 3 C 73.7006 72.8928 0.485171 0.491338 0.485952 0.00101323 73.7006 72.8928 0.485171 0.491338 0.485952 0.00101323 0 0 0 0.5897 -0.000812471 0.00944129 -0.00272581 
3455 3 C 72.3359 73.9738 2.33872 0.482239 0.493158 0.00651431 72.3359 73.9738 2.33872 0.482239 0.493158 0.00651431 0 0 0 0.5897 -0.0210912 -0.00121906 0.00534163 
3648 3 C 72.4885 71.9861 0.45935 0.483257 0.479907 0.000936597 72.4885 71.9861 0.45935 0.483257 0.479907 0.000936597 0 0 0 0.5897 0.00624975 0.000219487 -0.0108706 
3454 4 C 72.5328 74.18 3.25245 0.483552 0.494533 0.00922615 72.5328 74.18 3.25245 0.483552 0.494533 0.00922615 0 0 0 -1.1794 0.0046714 -0.00331618 0.000262033 
3414 3 C 73.1794 73.9917 6.12337 0.487863 0.493278 0.0177467 73.1794 73.9917 6.12337 0.487863 0.493278 0.0177467 0 0 0 0.5897 0.000924942 -0.0078055 0.0123174 
3413 3 C 72.1896 73.9539 4.97845 0.481264 0.493026 0.0143487 72.1896 73.9539 4.97845 0.481264 0.493026 0.0143487 0 0 0 0.5897 0.0180352 -0.0168898 -0.00218028 
3412 4 C 72.2412 73.9748 5.93403 0.481608 0.493166 0.0171847 72.2412 73.9748 5.93403 0.481608 0.493166 0.0171847 0 0 0 -1.1794 0.00366575 -0.00353199 -0.0016925 
3289 4 C 74.7436 72.3181 3.54586 0.498291 0.482121 0.0100969 74.7436 72.3181 3.54586 0.498291 0.482121 0.0100969 0 0 0 -1.1794 -0.00290668 -0.00164415 -0.00115291 
5162 3 C 74.8394 71.5668 6.98822 0.498929 0.477112 0.0203134 74.8394 71.5668 6.98822 0.498929 0.477112 0.0203134 0 0 0 0.5897 -0.00848118 0.00537765 -0.00342688 
4267 4 C 74.9105 74.5237 6.26579 0.499403 0.496824 0.0181693 74.9105 74.5237 6.26579 0.499403 0.496824 0.0181693 0 0 0 -1.1794 -0.000761772 -0.00062842 -0.00194394 
3291 3 C 74.6914 72.0352 4.45881 0.497943 0.480235 0.0128065 74.6914 72.0352 4.45881 0.497943 0.480235 0.0128065 0 0 0 0.5897 -0.0150915 0.00073926 -0.00110459 
5729 3 C 74.904 74.6699 13.405 0.49936 0.497799 0.0393577 74.904 74.6699 13.405 0.49936 0.497799 0.0393577 0 0 0 0.5897 0.0126596 0.0161839 0.00778395 
3782 3 C 73.91 72.529 8.84437 0.492733 0.483527 0.0258222 73.91 72.529 8.84437 0.492733 0.483527 0.0258222 0 0 0 0.5897 -0.00524214 -0.00125857 -0.00712533 
4109 3 C 72.6776 73.1173 11.8469 0.484517 0.487449 0.0347333 72.6776 73.1173 11.8469 0.484517 0.487449 0.0347333 0 0 0 0.5897 0.00532154 0.00722779 -0.00345132 
3142 4 C 74.2419 71.945 11.7835 0.494946 0.479633 0.0345452 74.2419 71.945 11.7835 0.494946 0.479633 0.0345452 0 0 0 -1.1794 -0.0047489 -0.00395216 0.000663214 
3783 3 C 74.5169 71.463 9.73164 0.496779 0.47642 0.0284555 74.5169 71.463 9.73164 0.496779 0.47642 0.0284555 0 0 0 0.5897 -0.000843204 0.0155102 0.0100289 
3781 4 C 74.587 71.8526 8.86011 0.497247 0.479017 0.0258689 74.587 71.8526 8.86011 0.497247 0.479017 0.0258689 0 0 0 -1.1794 -0.00411138 0.000100848 0.00287953 
4108 4 C 71.9521 73.7417 11.8585 0.479681 0.491611 0.0347676 71.9521 73.7417 11.8585 0.479681 0.491611 0.0347676 0 0 0 -1.1794 -0.00213685 -0.0015063 0.000686355 
5212 4 C 72.5623 73.778 8.95248 0.483749 0.491853 0.0261431 72.5623 73.778 8.95248 0.483749 0.491853 0.0261431 0 0 0 -1.1794 -0.00280384 -0.000967928 0.00157256 
3143 3 C 74.5869 72.8353 11.7152 0.497246 0.485568 0.0343424 74.5869 72.8353 11.7152 0.497246 0.485568 0.0343424 0 0 0 0.5897 -0.00187176 -0.00686009 -0.0224869 
4110 3 C 71.5119 73.6137 11.0182 0.476746 0.490758 0.0322739 71.5119 73.6137 11.0182 0.476746 0.490758 0.0322739 0 0 0 0.5897 0.00344297 0.00357574 -0.00300055 
3144 3 C 74.2785 71.7446 12.7188 0.49519 0.478297 0.037321 74.2785 71.7446 12.7188 0.49519 0.478297 0.037321 0 0 0 0.5897 0.0169822 0.0113294 0.00307042 
5214 3 C 72.1092 73.6034 8.12757 0.480728 0.490689 0.0236949 72.1092 73.6034 8.12757 0.480728 0.490689 0.0236949 0 0 0 0.5897 0.00446835 -0.0167327 0.000903639 
5728 4 C 74.589 74.6619 14.3089 0.49726 0.497746 0.0420402 74.589 74.6619 14.3089 0.49726 0.497746 0.0420402 0 0 0 -1.1794 -0.00244245 -0.00269571 0.00234391 
3596 3 C 71.7176 74.0912 13.6653 0.478117 0.493941 0.04013 71.7176 74.0912 13.6653 0.478117 0.493941 0.04013 0 0 0 0.5897 -0.019393 0.00238977 0.0040986 
3595 4 C 71.8121 74.5413 14.5048 0.478747 0.496942 0.0426215 71.8121 74.5413 14.5048 0.478747 0.496942 0.0426215 0 0 0 -1.1794 -0.00169675 0.00519078 0.000598347 
5213 3 C 72.6729 74.7287 8.96902 0.484486 0.498191 0.0261922 72.6729 74.7287 8.96902 0.484486 0.498191 0.0261922 0 0 0 0.5897 0.000900413 -0.00104451 -0.0176458 
5713 4 C 74.7579 72.0401 14.5838 0.498386 0.480267 0.042856 74.7579 72.0401 14.5838 0.498386 0.480267 0.042856 0 0 0 -1.1794 0.000798793 -0.00160132 0.0013965 
5714 3 C 74.754 72.9949 14.6514 0.49836 0.486633 0.0430565 74.754 72.9949 14.6514 0.49836 0.486633 0.0430565 0 0 0 0.5897 0.00737816 -0.00135381 -0.00160538 
5715 3 C 74.3334 71.7409 15.3878 0.495556 0.478272 0.0452424 74.3334 71.7409 15.3878 0.495556 0.478272 0.0452424 0 0 0 0.5897 0.0226268 0.00314271 0.014686 
4664 3 C 72.1701 74.6799 22.9835 0.481134 0.497866 0.0677851 72.1701 74.6799 22.9835 0.481134 0.497866 0.0677851 0 0 0 0.5897 -0.00674438 0.00149045 0.00307196 
4890 3 C 71.9579 73.9304 19.203 0.479719 0.492869 0.0565652 71.9579 73.9304 19.203 0.479719 0.492869 0.0565652 0 0 0 0.5897 0.0149658 0.0151503 -0.00171916 
4888 4 C 72.2045 73.8195 20.1212 0.481363 0.49213 0.0592904 72.2045 73.8195 20.1212 0.481363 0.49213 0.0592904 0 0 0 -1.1794 0.000718272 -0.000804926 0.000193061 
4791 3 C 74.1205 71.7407 21.2478 0.494137 0.478272 0.062634 74.1205 71.7407 21.2478 0.494137 0.478272 0.062634 0 0 0 0.5897 -0.00984112 -0.00566984 2.13096e-05 
4459 4 C 72.0539 74.0582 17.1359 0.480359 0.493721 0.0504303 72.0539 74.0582 17.1359 0.480359 0.493721 0.0504303 0 0 0 -1.1794 -0.00234435 -0.000345297 -0.00241709 
4889 3 C 72.7596 73.0397 20.1282 0.485064 0.486932 0.059311 72.7596 73.0397 20.1282 0.485064 0.486932 0.059311 0 0 0 0.5897 0.0101885 0.00589953 -0.00646395 
4461 3 C 72.6131 73.287 17.0417 0.484088 0.48858 0.0501509 72.6131 73.287 17.0417 0.484088 0.48858 0.0501509 0 0 0 0.5897 -0.0153688 -0.00946407 -0.00512499 
3292 4 C 73.7389 71.9879 17.1675 0.491593 0.479919 0.0505241 73.7389 71.9879 17.1675 0.491593 0.479919 0.0505241 0 0 0 -1.1794 -0.00264004 0.000760691 -0.00584981 
3293 3 C 73.6187 71.6358 18.0494 0.490791 0.477572 0.0531416 73.6187 71.6358 18.0494 0.490791 0.477572 0.0531416 0 0 0 0.5897 0.000470671 0.00298955 -0.00453893 
5172 3 C 73.6911 72.8167 22.8189 0.491274 0.485445 0.0672968 73.6911 72.8167 22.8189 0.491274 0.485445 0.0672968 0 0 0 0.5897 0.0072711 0.0013314 -0.0143417 
4789 4 C 74.0877 71.9122 20.3067 0.493918 0.479415 0.0598408 74.0877 71.9122 20.3067 0.493918 0.479415 0.0598408 0 0 0 -1.1794 -0.0011806 0.00298982 0.00129502 
4665 3 C 71.8831 73.7359 21.8353 0.479221 0.491573 0.0643775 71.8831 73.7359 21.8353 0.479221 0.491573 0.0643775 0 0 0 0.5897 -0.0195773 -0.00252643 0.00957362 
4460 3 C 71.6423 74.1623 16.278 0.477615 0.494415 0.0478842 71.6423 74.1623 16.278 0.477615 0.494415 0.0478842 0 0 0 0.5897 -0.0164904 -0.002678 0.00406392 
4663 4 C 72.099 73.7501 22.7677 0.48066 0.491667 0.0671448 72.099 73.7501 22.7677 0.48066 0.491667 0.0671448 0 0 0 -1.1794 -0.0026126 0.000591298 0.00560061 
3294 3 C 74.3412 72.723 17.2826 0.495608 0.48482 0.0508657 74.3412 72.723 17.2826 0.495608 0.48482 0.0508657 0 0 0 0.5897 -0.00416657 0.00257911 -0.00948368 
5170 4 C 74.4085 72.2179 23.0263 0.496057 0.481452 0.0679122 74.4085 72.2179 23.0263 0.496057 0.481452 0.0679122 0 0 0 -1.1794 0.0028164 0.00236459 0.00417335 
5388 3 C 74.7984 74.7735 16.3051 0.498656 0.49849 0.0479647 74.7984 74.7735 16.3051 0.498656 0.49849 0.0479647 0 0 0 0.5897 -0.000214722 -0.00679754 0.00155588 
4790 3 C 74.9753 72.1919 20.0827 0.499835 0.48128 0.059176 74.9753 72.1919 20.0827 0.499835 0.48128 0.059176 0 0 0 0.5897 0.00146511 0.00289277 0.0116133 
5171 3 C 74.3195 72.0527 23.9649 0.495464 0.480351 0.070698 74.3195 72.0527 23.9649 0.495464 0.480351 0.070698 0 0 0 0.5897 -0.027012 -0.00544078 -6.85349e-06 
3166 4 C 72.3093 73.3916 25.6696 0.482062 0.489278 0.0757572 72.3093 73.3916 25.6696 0.482062 0.489278 0.0757572 0 0 0 -1.1794 0.0021979 0.0017027 0.000447541 
3233 3 C 74.381 73.0362 28.5862 0.495873 0.486908 0.0844133 74.381 73.0362 28.5862 0.495873 0.486908 0.0844133 0 0 0 0.5897 0.00631197 0.0012956 0.00154026 
3232 4 C 73.9497 72.1818 28.6021 0.492998 0.481212 0.0844606 73.9497 72.1818 28.6021 0.492998 0.481212 0.0844606 0 0 0 -1.1794 0.00258673 0.00313384 -0.000649449 
3234 3 C 73.0917 72.3532 28.9903 0.487278 0.482354 0.0856125 73.0917 72.3532 28.9903 0.487278 0.482354 0.0856125 0 0 0 0.5897 0.0123021 0.00175985 0.0213788 
3952 4 C 71.8721 73.3361 30.2325 0.479147 0.488907 0.0892992 71.8721 73.3361 30.2325 0.479147 0.488907 0.0892992 0 0 0 -1.1794 0.00142538 -0.0019672 -0.00207181 
4098 3 C 74.3169 71.6261 26.8969 0.495446 0.477507 0.0793998 74.3169 71.6261 26.8969 0.495446 0.477507 0.0793998 0 0 0 0.5897 -9.5212e-05 -0.00375841 -0.00103282 
4096 4 C 74.428 71.5999 25.9466 0.496187 0.477332 0.0765792 74.428 71.5999 25.9466 0.496187 0.477332 0.0765792 0 0 0 -1.1794 0.00399547 -0.000577522 -0.000635004 
3167 3 C 72.8794 72.6228 25.6838 0.485863 0.484152 0.0757993 72.8794 72.6228 25.6838 0.485863 0.484152 0.0757993 0 0 0 0.5897 0.0181741 0.0133889 -0.0076588 
3168 3 C 71.8686 73.348 24.821 0.479124 0.488986 0.0732387 71.8686 73.348 24.821 0.479124 0.488986 0.0732387 0 0 0 0.5897 0.0134477 0.0090606 -0.00576311 
3954 3 C 71.0116 73.2278 30.6376 0.473411 0.488185 0.0905015 71.0116 73.2278 30.6376 0.473411 0.488185 0.0905015 0 0 0 0.5897 -0.00514337 0.00921131 -0.0130565 
3479 3 C 74.0054 74.1795 25.4889 0.493369 0.49453 0.0752208 74.0054 74.1795 25.4889 0.493369 0.49453 0.0752208 0 0 0 0.5897 -0.0024687 0.0114507 0.00461037 
4878 3 C 72.1659 74.2884 27.1235 0.481106 0.495256 0.0800721 72.1659 74.2884 27.1235 0.481106 0.495256 0.0800721 0 0 0 0.5897 0.00193728 0.0100455 -0.00956093 
3953 3 C 72.2928 74.0274 30.7437 0.481952 0.493516 0.0908164 72.2928 74.0274 30.7437 0.481952 0.493516 0.0908164 0 0 0 0.5897 0.00781807 -0.0145745 0.00973558 
3478 4 C 74.9478 74.3388 25.5397 0.499652 0.495592 0.0753716 74.9478 74.3388 25.5397 0.499652 0.495592 0.0753716 0 0 0 -1.1794 -1.32581e-05 -0.00100467 -0.00175724 
4877 3 C 71.8808 74.2501 28.6098 0.479205 0.495001 0.0844833 71.8808 74.2501 28.6098 0.479205 0.495001 0.0844833 0 0 0 0.5897 0.019487 -0.00966102 -0.00670057 
4876 4 C 72.067 74.853 27.89 0.480447 0.49902 0.0823472 72.067 74.853 27.89 0.480447 0.49902 0.0823472 0 0 0 -1.1794 -0.000502307 0.000839734 -0.00308835 
4071 3 C 73.8251 72.1085 36.6444 0.492167 0.480724 0.108329 73.8251 72.1085 36.6444 0.492167 0.480724 0.108329 0 0 0 0.5897 -0.00720435 -0.00932112 0.0050331 
4069 4 C 72.8732 72.1879 36.5827 0.485821 0.481253 0.108146 72.8732 72.1879 36.5827 0.485821 0.481253 0.108146 0 0 0 -1.1794 -0.00624423 -0.00332888 -0.00205003 
4070 3 C 72.5653 72.0889 37.4836 0.483769 0.480593 0.11082 72.5653 72.0889 37.4836 0.483769 0.480593 0.11082 0 0 0 0.5897 -0.0127869 0.00903455 -0.00295406 
4623 3 C 72.1866 73.1714 35.2136 0.481244 0.48781 0.104083 72.1866 73.1714 35.2136 0.481244 0.48781 0.104083 0 0 0 0.5897 -0.00387784 -0.00196438 0.00252258 
4621 4 C 72.0288 73.7298 34.4523 0.480192 0.491532 0.101823 72.0288 73.7298 34.4523 0.480192 0.491532 0.101823 0 0 0 -1.1794 -0.00313322 -0.00436307 0.000611547 
5575 4 C 73.3133 71.9725 32.8016 0.488755 0.479817 0.0969242 73.3133 71.9725 32.8016 0.488755 0.479817 0.0969242 0 0 0 -1.1794 -0.00161527 -0.0039415 -0.00394091 
4622 3 C 72.3051 73.1998 33.7046 0.482034 0.487999 0.0996041 72.3051 73.1998 33.7046 0.482034 0.487999 0.0996041 0 0 0 0.5897 0.000449474 -0.00558125 0.00279633 
5577 3 C 74.1226 71.8691 33.3022 0.494151 0.479127 0.0984098 74.1226 71.8691 33.3022 0.494151 0.479127 0.0984098 0 0 0 0.5897 0.00536301 0.00344425 -0.0136446 
5576 3 C 73.0407 71.0777 32.5987 0.486938 0.473851 0.0963219 73.0407 71.0777 32.5987 0.486938 0.473851 0.0963219 0 0 0 0.5897 -0.00589479 -0.00700502 0.0153426 
4496 3 C 73.7762 74.3135 34.266 0.491841 0.495423 0.10127 73.7762 74.3135 34.266 0.491841 0.495423 0.10127 0 0 0 0.5897 -0.000336646 0.0010704 -0.0305834 
4495 4 C 74.6727 74.6428 34.3289 0.497818 0.497619 0.101457 74.6727 74.6428 34.3289 0.497818 0.497619 0.101457 0 0 0 -1.1794 -0.00221116 0.000719517 -0.00121633 
4091 3 C 74.9379 72.0139 31.625 0.499586 0.480092 0.093432 74.9379 72.0139 31.625 0.499586 0.480092 0.093432 0 0 0 0.5897 -0.00925678 0.0103418 -0.00485695 
4387 4 C 74.8249 71.6758 39.6478 0.498833 0.477838 0.117243 74.8249 71.6758 39.6478 0.498833 0.477838 0.117243 0 0 0 -1.1794 0.00511613 0.00185073 -0.00311522 
5618 3 C 74.7631 73.4097 39.983 0.498421 0.489398 0.118237 74.7631 73.4097 39.983 0.498421 0.489398 0.118237 0 0 0 0.5897 0.00391177 -0.00194578 -0.0161309 
4848 3 C 72.0876 73.5622 42.1987 0.480584 0.490415 0.124813 72.0876 73.5622 42.1987 0.480584 0.490415 0.124813 0 0 0 0.5897 0.0209399 0.0133067 0.0203437 
5418 3 C 72.4351 73.7855 39.1526 0.482901 0.491903 0.115773 72.4351 73.7855 39.1526 0.482901 0.491903 0.115773 0 0 0 0.5897 0.0208011 0.00313774 0.0132952 
4389 3 C 73.8722 71.7682 39.6421 0.492482 0.478455 0.117226 73.8722 71.7682 39.6421 0.492482 0.478455 0.117226 0 0 0 0.5897 0.00487015 -0.000291345 0.00243912 
5416 4 C 72.3994 72.8344 39.2549 0.482663 0.485563 0.116076 72.3994 72.8344 39.2549 0.482663 0.485563 0.116076 0 0 0 -1.1794 -0.0025712 0.00293888 0.0036821 
5417 3 C 72.1498 72.7006 40.1692 0.480999 0.484671 0.11879 72.1498 72.7006 40.1692 0.480999 0.484671 0.11879 0 0 0 0.5897 -0.0269549 -2.54156e-05 -0.00341718 
4846 4 C 72.472 72.6882 42.1304 0.483146 0.484588 0.124611 72.472 72.6882 42.1304 0.483146 0.484588 0.124611 0 0 0 -1.1794 0.00153336 0.00602121 0.00449553 
4436 3 C 73.6261 72.6301 45.0955 0.49084 0.484201 0.133411 73.6261 72.6301 45.0955 0.49084 0.484201 0.133411 0 0 0 0.5897 -9.92611e-05 -0.00570724 0.00572224 
4435 4 C 72.6708 72.5891 45.0513 0.484472 0.483927 0.13328 72.6708 72.5891 45.0513 0.484472 0.483927 0.13328 0 0 0 -1.1794 0.000241578 -0.00448836 -0.00286128 
4847 3 C 72.4308 72.3378 43.0202 0.482872 0.482252 0.127251 72.4308 72.3378 43.0202 0.482872 0.482252 0.127251 0 0 0 0.5897 -0.00634802 -0.00922758 -0.00187874 
3752 3 C 74.1738 72.3457 42.1925 0.494492 0.482304 0.124795 74.1738 72.3457 42.1925 0.494492 0.482304 0.124795 0 0 0 0.5897 0.00159998 0.00156934 -0.00573078 
4437 3 C 72.3968 72.403 45.9494 0.482645 0.482687 0.135945 72.3968 72.403 45.9494 0.482645 0.482687 0.135945 0 0 0 0.5897 -0.00935791 0.0212242 -0.000446667 
4704 3 C 71.9234 74.1396 44.8201 0.479489 0.494264 0.132593 71.9234 74.1396 44.8201 0.479489 0.494264 0.132593 0 0 0 0.5897 0.00243207 0.00504331 0.0135268 
5617 4 C 74.9436 74.3257 39.7719 0.499624 0.495505 0.117611 74.9436 74.3257 39.7719 0.499624 0.495505 0.117611 0 0 0 -1.1794 0.000954978 0.0024309 0.000477768 
5619 3 C 74.5967 74.441 38.8872 0.497311 0.496274 0.114985 74.5967 74.441 38.8872 0.497311 0.496274 0.114985 0 0 0 0.5897 0.0157594 0.0128794 -0.00392483 
5551 4 C 74.7191 74.9183 44.8486 0.498127 0.499455 0.132678 74.7191 74.9183 44.8486 0.498127 0.499455 0.132678 0 0 0 -1.1794 -0.00312745 -1.78648e-05 0.00276867 
3675 3 C 74.815 74.57 49.1574 0.498767 0.497133 0.145466 74.815 74.57 49.1574 0.498767 0.497133 0.145466 0 0 0 0.5897 0.00940268 -0.00517394 -0.00712845 
5273 3 C 71.4258 74.7791 49.6762 0.476172 0.498527 0.147006 71.4258 74.7791 49.6762 0.476172 0.498527 0.147006 0 0 0 0.5897 0.00318947 -0.0115951 -0.00761384 
5272 4 C 71.7643 74.6006 50.5536 0.478429 0.497337 0.14961 71.7643 74.6006 50.5536 0.478429 0.497337 0.14961 0 0 0 -1.1794 0.00063058 -0.000988393 -0.00446886 
4054 4 C 71.8037 74.3132 53.4861 0.478691 0.495421 0.158313 71.8037 74.3132 53.4861 0.478691 0.495421 0.158313 0 0 0 -1.1794 0.00196552 -0.000746051 -0.000947082 
4055 3 C 71.4835 74.2143 52.5894 0.476557 0.494762 0.155652 71.4835 74.2143 52.5894 0.476557 0.494762 0.155652 0 0 0 0.5897 0.00631608 0.0106912 -0.00374847 
3513 3 C 74.1488 73.0347 50.3854 0.494325 0.486898 0.149111 74.1488 73.0347 50.3854 0.494325 0.486898 0.149111 0 0 0 0.5897 -0.0130807 0.0118693 -0.00330217 
3511 4 C 73.5245 72.3094 50.3633 0.490164 0.482063 0.149045 73.5245 72.3094 50.3633 0.490164 0.482063 0.149045 0 0 0 -1.1794 0.00123363 -0.000396671 -0.00454164 
3512 3 C 73.5612 71.9343 51.2432 0.490408 0.479562 0.151656 73.5612 71.9343 51.2432 0.490408 0.479562 0.151656 0 0 0 0.5897 3.71579e-05 0.00608057 -0.001742 
5664 3 C 72.6141 72.2187 48.7483 0.484094 0.481458 0.144252 72.6141 72.2187 48.7483 0.484094 0.481458 0.144252 0 0 0 0.5897 -0.0157526 -0.016804 0.00160434 
5662 4 C 72.3329 72.4268 47.8573 0.482219 0.482845 0.141607 72.3329 72.4268 47.8573 0.482219 0.482845 0.141607 0 0 0 -1.1794 0.00244683 -0.00604581 -0.00161975 
4284 3 C 72.7791 72.7616 53.3688 0.485194 0.485077 0.157965 72.7791 72.7616 53.3688 0.485194 0.485077 0.157965 0 0 0 0.5897 -0.00231553 -0.00999986 0.000143748 
5663 3 C 71.8404 73.2428 47.9455 0.478936 0.488286 0.141869 71.8404 73.2428 47.9455 0.478936 0.488286 0.141869 0 0 0 0.5897 0.0134196 0.00081693 -0.00398159 
5274 3 C 72.1301 73.718 50.4947 0.480867 0.491453 0.149435 72.1301 73.718 50.4947 0.480867 0.491453 0.149435 0 0 0 0.5897 -0.00600059 -0.00466767 0.00928642 
4282 4 C 73.4416 72.0832 53.2374 0.48961 0.480555 0.157575 73.4416 72.0832 53.2374 0.48961 0.480555 0.157575 0 0 0 -1.1794 0.00451104 -0.0030277 -0.00154336 
4925 3 C 74.2068 72.0179 47.6543 0.494712 0.480119 0.141005 74.2068 72.0179 47.6543 0.494712 0.480119 0.141005 0 0 0 0.5897 0.00182551 0.00832992 -0.000176882 
5637 3 C 74.5731 74.7813 46.5563 0.497154 0.498542 0.137746 74.5731 74.7813 46.5563 0.497154 0.498542 0.137746 0 0 0 0.5897 0.0230362 0.00412885 0.0124881 
4926 3 C 74.9099 71.499 48.8905 0.4994 0.47666 0.144674 74.9099 71.499 48.8905 0.4994 0.47666 0.144674 0 0 0 0.5897 -0.00594279 -0.0243119 -0.00948322 
4289 3 C 72.4828 74.928 47.5282 0.483219 0.49952 0.140631 72.4828 74.928 47.5282 0.483219 0.49952 0.140631 0 0 0 0.5897 0.00108405 -6.84286e-05 0.0087619 
4288 4 C 71.5614 74.9266 47.7874 0.477076 0.499511 0.1414 71.5614 74.9266 47.7874 0.477076 0.499511 0.1414 0 0 0 -1.1794 -0.000772263 0.00089952 0.00215728 
5635 4 C 74.2742 74.9381 47.452 0.495162 0.499588 0.140405 74.2742 74.9381 47.452 0.495162 0.499588 0.140405 0 0 0 -1.1794 -0.00094976 -0.000349172 0.00524918 
4290 3 C 71.0796 74.9643 46.9612 0.473864 0.499762 0.138948 71.0796 74.9643 46.9612 0.473864 0.499762 0.138948 0 0 0 0.5897 0.00548164 0.0317662 -4.67988e-05 
4229 3 C 71.6332 73.9444 55.6076 0.477554 0.492962 0.164609 71.6332 73.9444 55.6076 0.477554 0.492962 0.164609 0 0 0 0.5897 -0.00490848 0.00495232 0.00136072 
3368 3 C 71.6371 73.8961 58.3845 0.477581 0.49264 0.172851 71.6371 73.8961 58.3845 0.477581 0.49264 0.172851 0 0 0 0.5897 0.0153902 -0.000106065 -0.0071507 
4228 4 C 72.0149 73.8304 56.4779 0.4801 0.492203 0.167192 72.0149 73.8304 56.4779 0.4801 0.492203 0.167192 0 0 0 -1.1794 0.000791072 9.35516e-05 -0.00177498 
3367 4 C 71.8482 74.1306 59.2882 0.478988 0.494204 0.175533 71.8482 74.1306 59.2882 0.478988 0.494204 0.175533 0 0 0 -1.1794 0.000734662 -0.00444786 -0.00261003 
4381 4 C 74.2038 71.9792 56.053 0.494692 0.479861 0.165931 74.2038 71.9792 56.053 0.494692 0.479861 0.165931 0 0 0 -1.1794 0.00507296 -0.0012356 -0.0028248 
4382 3 C 74.1103 71.6768 56.9564 0.494069 0.477846 0.168612 74.1103 71.6768 56.9564 0.494069 0.477846 0.168612 0 0 0 0.5897 -0.00407934 0.00393565 -0.00204545 
4283 3 C 73.6585 71.7852 54.1208 0.491057 0.478568 0.160196 73.6585 71.7852 54.1208 0.491057 0.478568 0.160196 0 0 0 0.5897 -0.00390674 -0.013988 -0.00318141 
5022 3 C 73.6268 72.8246 59.0406 0.490845 0.485497 0.174798 73.6268 72.8246 59.0406 0.490845 0.485497 0.174798 0 0 0 0.5897 0.0164901 0.00225532 0.000811821 
5021 3 C 73.5306 71.4749 59.7195 0.490204 0.476499 0.176813 73.5306 71.4749 59.7195 0.490204 0.476499 0.176813 0 0 0 0.5897 -0.0012281 -0.000498096 -0.00710369 
5020 4 C 73.7435 71.8878 58.8826 0.491623 0.479252 0.174329 73.7435 71.8878 58.8826 0.491623 0.479252 0.174329 0 0 0 -1.1794 0.00385742 0.00159908 -0.00477859 
4230 3 C 72.7268 73.2039 56.3476 0.484845 0.488026 0.166805 72.7268 73.2039 56.3476 0.484845 0.488026 0.166805 0 0 0 0.5897 -0.0151668 -0.0172646 -0.00565972 
5015 3 C 71.5876 74.1391 61.0884 0.477251 0.494261 0.180876 71.5876 74.1391 61.0884 0.477251 0.494261 0.180876 0 0 0 0.5897 -0.00990027 -0.00588619 0.00552191 
3272 3 C 74.6989 74.9034 57.4614 0.497992 0.499356 0.170111 74.6989 74.9034 57.4614 0.497992 0.499356 0.170111 0 0 0 0.5897 0.00386237 0.00305639 0.00515194 
3271 4 C 74.9176 74.9071 58.3932 0.499451 0.499381 0.172877 74.9176 74.9071 58.3932 0.499451 0.499381 0.172877 0 0 0 -1.1794 0.000841447 -0.00401924 0.00588435 
4115 3 C 73.6177 74.8945 61.2576 0.490784 0.499297 0.181378 73.6177 74.8945 61.2576 0.490784 0.499297 0.181378 0 0 0 0.5897 -0.00225448 0.00672201 0.014201 
3836 3 C 71.866 74.3417 67.8855 0.479107 0.495611 0.201048 71.866 74.3417 67.8855 0.479107 0.495611 0.201048 0 0 0 0.5897 -0.0103224 -9.60256e-05 -0.0112746 
4655 3 C 72.427 74.4782 65.0618 0.482847 0.496522 0.192668 72.427 74.4782 65.0618 0.482847 0.496522 0.192668 0 0 0 0.5897 -0.00753321 0.0022774 -0.0134724 
4522 4 C 74.7287 71.7329 67.1376 0.498191 0.478219 0.198829 74.7287 71.7329 67.1376 0.498191 0.478219 0.198829 0 0 0 -1.1794 0.00145253 -0.00348918 0.00143863 
3910 4 C 73.9215 72.1651 61.6819 0.49281 0.481101 0.182637 73.9215 72.1651 61.6819 0.49281 0.481101 0.182637 0 0 0 -1.1794 -0.00173353 -0.00432394 -0.00181749 
3911 3 C 73.0801 72.5797 61.873 0.487201 0.483865 0.183204 73.0801 72.5797 61.873 0.487201 0.483865 0.183204 0 0 0 0.5897 0.00104849 0.00265998 -0.00479429 
5014 4 C 71.9394 74.124 61.9785 0.479596 0.49416 0.183517 71.9394 74.124 61.9785 0.479596 0.49416 0.183517 0 0 0 -1.1794 0.00671996 -0.00264488 -0.00098122 
4942 4 C 74.2622 71.6737 64.413 0.495082 0.477825 0.190743 74.2622 71.6737 64.413 0.495082 0.477825 0.190743 0 0 0 -1.1794 0.00258243 -0.00158363 0.000193152 
4524 3 C 74.4729 71.6293 66.221 0.496486 0.477529 0.196108 74.4729 71.6293 66.221 0.496486 0.477529 0.196108 0 0 0 0.5897 0.00458512 -0.00985334 0.00129651 
3912 3 C 74.1998 71.7908 62.5178 0.494665 0.478605 0.185118 74.1998 71.7908 62.5178 0.494665 0.478605 0.185118 0 0 0 0.5897 -0.00541823 -0.0023156 0.000299881 
4523 3 C 73.9168 71.9648 67.5885 0.492779 0.479765 0.200167 73.9168 71.9648 67.5885 0.492779 0.479765 0.200167 0 0 0 0.5897 -0.00164076 -0.00842952 -0.00159089 
4943 3 C 73.6554 72.412 64.4667 0.491036 0.482747 0.190902 73.6554 72.412 64.4667 0.491036 0.482747 0.190902 0 0 0 0.5897 -0.00119852 -0.00494872 0.00368847 
4696 4 C 72.4751 72.4466 68.3487 0.483167 0.482977 0.202423 72.4751 72.4466 68.3487 0.483167 0.482977 0.202423 0 0 0 -1.1794 -0.00352461 0.00313429 -0.00259154 
4698 3 C 71.958 71.6491 68.2354 0.47972 0.47766 0.202087 71.958 71.6491 68.2354 0.47972 0.47766 0.202087 0 0 0 0.5897 -0.00738837 0.00651583 -0.00873564 
4654 4 C 72.3975 73.5611 64.7896 0.48265 0.490407 0.19186 72.3975 73.5611 64.7896 0.48265 0.490407 0.19186 0 0 0 -1.1794 -0.000122098 -0.00101998 -0.00318965 
4656 3 C 71.941 73.575 63.9483 0.479607 0.4905 0.189363 71.941 73.575 63.9483 0.479607 0.4905 0.189363 0 0 0 0.5897 -0.0026339 -0.0144439 -0.00205529 
4427 3 C 74.8675 74.9356 67.948 0.499116 0.49957 0.201234 74.8675 74.9356 67.948 0.499116 0.49957 0.201234 0 0 0 0.5897 0.00757921 0.0166252 -0.00517838 
3279 3 C 74.7888 74.8084 62.7967 0.498592 0.498723 0.185945 74.7888 74.8084 62.7967 0.498592 0.498723 0.185945 0 0 0 0.5897 -0.00218793 0.00925554 -0.00470597 
5346 3 C 74.9513 74.7309 73.0222 0.499676 0.498206 0.216293 74.9513 74.7309 73.0222 0.499676 0.498206 0.216293 0 0 0 0.5897 0.0075618 -0.00039798 0.000336501 
5102 3 C 72.5559 74.7124 70.7724 0.483706 0.498083 0.209616 72.5559 74.7124 70.7724 0.483706 0.498083 0.209616 0 0 0 0.5897 -0.0180738 -0.010684 -0.00875076 
4697 3 C 72.6698 72.4752 69.2855 0.484466 0.483168 0.205203 72.6698 72.4752 69.2855 0.484466 0.483168 0.205203 0 0 0 0.5897 -0.0147205 0.00202532 -0.000238697 
3705 3 C 74.0172 72.6794 73.6122 0.493448 0.484529 0.218045 74.0172 72.6794 73.6122 0.493448 0.484529 0.218045 0 0 0 0.5897 0.00308428 0.00712571 0.00239439 
5055 3 C 72.5526 73.7138 76.253 0.483684 0.491425 0.225882 72.5526 73.7138 76.253 0.483684 0.491425 0.225882 0 0 0 0.5897 -0.0102536 -0.00580301 -0.0256244 
5586 3 C 72.2212 74.5074 73.5794 0.481475 0.496716 0.217947 72.2212 74.5074 73.5794 0.481475 0.496716 0.217947 0 0 0 0.5897 -0.0144327 -0.00941342 0.00941531 
3704 3 C 72.8531 72.1929 74.449 0.485687 0.481286 0.220528 72.8531 72.1929 74.449 0.485687 0.481286 0.220528 0 0 0 0.5897 0.0050441 0.00615076 0.00455532 
3703 4 C 73.0778 72.5005 73.5708 0.487185 0.483337 0.217922 73.0778 72.5005 73.5708 0.487185 0.483337 0.217922 0 0 0 -1.1794 0.00463746 -0.00098864 0.00195941 
4330 4 C 73.134 72.7052 70.965 0.48756 0.484701 0.210188 73.134 72.7052 70.965 0.48756 0.484701 0.210188 0 0 0 -1.1794 -0.00368401 -0.00545826 0.0027711 
4332 3 C 72.8353 72.4849 71.8474 0.485569 0.483233 0.212807 72.8353 72.4849 71.8474 0.485569 0.483233 0.212807 0 0 0 0.5897 0.0172923 -0.0150142 0.007469 
4331 3 C 73.9389 72.1999 70.851 0.492926 0.481332 0.20985 73.9389 72.1999 70.851 0.492926 0.481332 0.20985 0 0 0 0.5897 -0.00392625 -0.000682685 -0.0201188 
5053 4 C 72.7267 72.775 76.3212 0.484844 0.485167 0.226084 72.7267 72.775 76.3212 0.484844 0.485167 0.226084 0 0 0 -1.1794 -0.00157205 -0.00225588 0.0015582 
5054 3 C 73.6812 72.706 76.3023 0.491208 0.484707 0.226028 73.6812 72.706 76.3023 0.491208 0.484707 0.226028 0 0 0 0.5897 -0.000860872 0.00629257 0.00646738 
5344 4 C 74.859 74.9745 73.9432 0.49906 0.49983 0.219027 74.859 74.9745 73.9432 0.49906 0.49983 0.219027 0 0 0 -1.1794 -0.00193322 0.00341828 -0.00162296 
3812 3 C 72.4124 73.0829 83.7077 0.482749 0.487219 0.248006 72.4124 73.0829 83.7077 0.482749 0.487219 0.248006 0 0 0 0.5897 0.011672 0.0181378 -0.00379032 
5786 3 C 74.8876 71.3114 81.195 0.499251 0.475409 0.240549 74.8876 71.3114 81.195 0.499251 0.475409 0.240549 0 0 0 0.5897 0.00560888 -0.00676862 0.0134066 
3656 3 C 74.6562 73.6527 81.9702 0.497708 0.491018 0.24285 74.6562 73.6527 81.9702 0.497708 0.491018 0.24285 0 0 0 0.5897 0.00234905 -0.000584095 0.00296951 
4615 4 C 72.4574 73.3722 79.1058 0.48305 0.489148 0.234349 72.4574 73.3722 79.1058 0.48305 0.489148 0.234349 0 0 0 -1.1794 -0.00179427 0.00082882 -0.00099036 
5568 3 C 72.1655 73.0606 80.9876 0.481104 0.48707 0.239934 72.1655 73.0606 80.9876 0.481104 0.48707 0.239934 0 0 0 0.5897 0.0170281 -0.0055593 0.00443526 
5567 3 C 71.8727 74.124 82.0246 0.479151 0.49416 0.243011 71.8727 74.124 82.0246 0.479151 0.49416 0.243011 0 0 0 0.5897 -0.00103767 -0.0030815 -0.00321154 
4616 3 C 72.1148 72.8732 78.3642 0.480766 0.485822 0.232148 72.1148 72.8732 78.3642 0.480766 0.485822 0.232148 0 0 0 0.5897 -0.00789102 -0.00281653 0.0042632 
3655 4 C 74.6944 74.5728 81.709 0.497963 0.497152 0.242075 74.6944 74.5728 81.709 0.497963 0.497152 0.242075 0 0 0 -1.1794 0.00151931 -0.00189355 -0.00181282 
4617 3 C 73.3487 73.0438 79.2247 0.488991 0.486959 0.234702 73.3487 73.0438 79.2247 0.488991 0.486959 0.234702 0 0 0 0.5897 0.00265919 0.00856707 -0.0131009 
5566 4 C 72.0152 73.1827 81.925 0.480101 0.487885 0.242716 72.0152 73.1827 81.925 0.480101 0.487885 0.242716 0 0 0 -1.1794 -0.00641876 -0.00428884 0.000518769 
5785 4 C 74.9081 71.8502 81.9859 0.499388 0.479001 0.242896 74.9081 71.8502 81.9859 0.499388 0.479001 0.242896 0 0 0 -1.1794 0.00137158 0.00632406 0.0046368 
4821 3 C 74.9883 71.6891 83.8046 0.499922 0.477927 0.248294 74.9883 71.6891 83.8046 0.499922 0.477927 0.248294 0 0 0 0.5897 -0.00280811 0.00773445 -0.00550061 
3657 3 C 73.7807 74.8578 81.6996 0.491871 0.499052 0.242047 73.7807 74.8578 81.6996 0.491871 0.499052 0.242047 0 0 0 0.5897 0.00228171 0.000968248 0.0101544 
3640 4 C 72.6037 73.0362 87.4671 0.484025 0.486908 0.259164 72.6037 73.0362 87.4671 0.484025 0.486908 0.259164 0 0 0 -1.1794 -0.000579427 0.000269611 -0.000374895 
3642 3 C 71.985 72.3283 87.6468 0.4799 0.482189 0.259697 71.985 72.3283 87.6468 0.4799 0.482189 0.259697 0 0 0 0.5897 -0.00643752 0.0071279 0.00647597 
3736 4 C 72.3769 72.9084 90.7317 0.482513 0.486056 0.268853 72.3769 72.9084 90.7317 0.482513 0.486056 0.268853 0 0 0 -1.1794 0.000289631 -0.00428856 -0.0025161 
3641 3 C 72.555 73.1627 86.5195 0.4837 0.487751 0.256352 72.555 73.1627 86.5195 0.4837 0.487751 0.256352 0 0 0 0.5897 0.0123348 -0.0193974 -0.00362324 
5084 3 C 74.3769 72.3505 87.6052 0.495846 0.482337 0.259574 74.3769 72.3505 87.6052 0.495846 0.482337 0.259574 0 0 0 0.5897 0.00466114 0.0135183 0.00170828 
3738 3 C 72.2983 73.8485 90.5696 0.481988 0.492324 0.268372 72.2983 73.8485 90.5696 0.481988 0.492324 0.268372 0 0 0 0.5897 -0.0158423 -0.00545064 -0.0013556 
3737 3 C 72.2484 72.8161 91.6757 0.481656 0.48544 0.271655 72.2484 72.8161 91.6757 0.481656 0.48544 0.271655 0 0 0 0.5897 0.0230062 -0.00534442 0.000473118 
3473 3 C 71.9916 74.5654 87.7356 0.479944 0.497103 0.259961 71.9916 74.5654 87.7356 0.479944 0.497103 0.259961 0 0 0 0.5897 0.0114914 -6.59326e-05 0.00364017 
3813 3 C 73.543 72.7037 84.6404 0.490287 0.484692 0.250775 73.543 72.7037 84.6404 0.490287 0.484692 0.250775 0 0 0 0.5897 -0.00058596 -0.00698296 0.000903516 
5474 3 C 74.1998 72.2028 90.5167 0.494665 0.481352 0.268215 74.1998 72.2028 90.5167 0.494665 0.481352 0.268215 0 0 0 0.5897 -0.0074425 -0.0197635 0.0121681 